/*--------------------------------*- C++ -*----------------------------------*\
| =========                 |                                                 |
| \\      /  F ield         | OpenFOAM: The Open Source CFD Toolbox           |
|  \\    /   O peration     | Version:  4.1                                   |
|   \\  /    A nd           | Web:      www.OpenFOAM.org                      |
|    \\/     M anipulation  |                                                 |
\*---------------------------------------------------------------------------*/
FoamFile
{
    version     2.0;
    format      ascii;
    class       volScalarField;
    location    "1";
    object      p;
}
// * * * * * * * * * * * * * * * * * * * * * * * * * * * * * * * * * * * * * //

dimensions      [0 2 -2 0 0 0 0];

internalField   nonuniform List<scalar> 
24850
(
-0.09653418599
-0.1144281931
-0.1033597067
-0.1003218421
-0.1012771533
-0.1013314975
-0.101044091
-0.1010070726
-0.1009463189
-0.1008472073
-0.1007412759
-0.1006177312
-0.100458569
-0.1002542947
-0.0999936832
-0.0996615259
-0.09923914375
-0.09870308548
-0.09802349985
-0.09716262897
-0.09607280231
-0.09469375186
-0.09294916547
-0.09074202928
-0.08794790239
-0.08440608691
-0.07989762689
-0.07413905745
-0.06653818391
-0.05655257724
-0.04117762448
-0.03492075586
-0.01739546797
-0.01880252782
-0.06829259814
-0.1254591813
-0.1113364699
-0.09846991059
-0.09613896728
-0.1005230698
-0.1012975755
-0.1008355798
-0.1009027005
-0.1010042414
-0.1010148187
-0.1009843703
-0.1009469428
-0.1008908537
-0.100806745
-0.1006930673
-0.1005441531
-0.1003505419
-0.1001003862
-0.09977849498
-0.0993653347
-0.09883572412
-0.09815718549
-0.09728801292
-0.09617475819
-0.09474861199
-0.09292003886
-0.09057224465
-0.0875470943
-0.08363147302
-0.07844588907
-0.07171999733
-0.0626855823
-0.0558874026
-0.0460839987
-0.04032968735
-0.03275667939
-0.03698756022
-0.01234564942
-0.01522296172
-0.07536349739
-0.1348777287
-0.1124033652
-0.09268326491
-0.09746064877
-0.1018777718
-0.1017556741
-0.1010577956
-0.101114611
-0.1011907641
-0.1011742254
-0.1011562964
-0.1011483136
-0.1011327824
-0.1011051771
-0.1010649483
-0.1010085044
-0.1009311723
-0.1008268454
-0.100687391
-0.1005020946
-0.100256927
-0.0999335857
-0.09950820479
-0.0989496224
-0.09821738108
-0.0972590737
-0.09600700529
-0.09437121081
-0.09223524985
-0.08939936414
-0.08571961868
-0.08078525658
-0.07566319813
-0.07044544114
-0.06373481285
-0.06020482383
-0.05850212265
-0.04513901733
-0.03811419768
-0.02866551947
-0.01612103509
-0.01234696787
-0.07634825041
-0.1348643304
-0.1124543103
-0.09274201124
-0.09749775759
-0.1019227703
-0.1018360669
-0.1011349973
-0.1012013884
-0.1013005751
-0.1013185823
-0.1013343696
-0.1013688423
-0.101407904
-0.1014490501
-0.1014951533
-0.1015472229
-0.1016059755
-0.1016721966
-0.1017464258
-0.101828817
-0.1019189726
-0.1020156715
-0.1021164677
-0.1022173138
-0.1023124014
-0.1023944927
-0.1024565457
-0.102497617
-0.102532567
-0.1026301383
-0.1028986935
-0.1034579817
-0.1029777653
-0.09991758356
-0.09499998249
-0.09131187327
-0.08758686461
-0.07560640357
-0.06133216362
-0.05418808576
-0.03955401686
-0.03624381487
-0.0123494753
-0.01793185871
-0.07180429349
-0.1246098856
-0.111291689
-0.09854784204
-0.09626805039
-0.1007045201
-0.1014581477
-0.1010493306
-0.1011588696
-0.1013176569
-0.1014026903
-0.1014673479
-0.1015506425
-0.1016444578
-0.1017484744
-0.1018712306
-0.1020189741
-0.1021975675
-0.1024140884
-0.1026770441
-0.1029965579
-0.1033847414
-0.1038561418
-0.1044283881
-0.1051231855
-0.1059680541
-0.1069997847
-0.1082713948
-0.1098715676
-0.1119545224
-0.1148786295
-0.1190992098
-0.1254466741
-0.1292504201
-0.1281979532
-0.1236908058
-0.1181807718
-0.1143077667
-0.1074385828
-0.09372522258
-0.08199687533
-0.06660105106
-0.05356867706
-0.0410981688
-0.02884760748
-0.01036089142
-0.09674607691
-0.114646952
-0.1035947351
-0.1005648052
-0.1015950213
-0.1017366606
-0.1015201787
-0.1015649129
-0.1016321386
-0.10170871
-0.1018087254
-0.1019453312
-0.1021178356
-0.1023306756
-0.1025932841
-0.1029175319
-0.1033180159
-0.1038129022
-0.1044248302
-0.1051819051
-0.1061189078
-0.1072794062
-0.1087186681
-0.1105079427
-0.1127418873
-0.1155514605
-0.1191356703
-0.1238047689
-0.1302722243
-0.1397487703
-0.1554631873
-0.1676713868
-0.1706913334
-0.1666624564
-0.167945357
-0.1690536528
-0.141422308
-0.1273598983
-0.1137909451
-0.09875956072
-0.07711120265
-0.062292019
-0.04142938528
-0.0291190401
-0.007919366017
0.003256747787
-0.1632790786
-0.1785169224
-0.149695684
-0.1301409023
-0.1072184662
-0.08843066388
-0.0607293675
-0.03691266651
-0.02127712499
0.006047243532
0.03127082251
-0.1729566573
-0.1841866149
-0.1463227581
-0.1165694815
-0.08716083869
-0.05635303203
-0.03121972814
-0.002178846151
0.03167755108
0.05636360588
-0.1697643387
-0.1665559744
-0.116553145
-0.08237146561
-0.05147866807
-0.01411559147
0.02125492812
0.05914081917
0.09144042415
-0.1395287722
-0.1220203367
-0.07757657514
-0.03635069737
0.006280202943
0.04648085493
0.08910899732
0.1240204065
-0.1366080461
-0.1175117011
-0.06725870784
-0.01772900674
0.02830976854
0.07258305007
0.1159904843
0.1534424984
-0.09110600666
-0.06761502383
-0.006087963141
0.04675188056
0.09534197159
0.1376913877
0.1759981944
-0.07952000823
-0.04024530082
0.01100634002
0.0581978917
0.1053234277
0.1360096959
-0.1246603371
-0.07915665077
-0.0242305124
0.02728413163
0.08041647009
0.133235584
0.1668294025
-0.09712297211
-0.06551970213
-0.003761491062
0.05378024125
0.1117695576
0.1552759372
0.195405043
-0.08243194225
-0.03150536571
0.01987345535
0.07116693905
0.1196112629
0.1469323721
-0.1496046431
-0.08130775792
-0.01967601929
0.04103165409
0.09966058524
0.1623714938
0.1924948435
-0.08707049587
-0.03346500255
0.02197400496
0.07061256028
0.1259464887
0.1479510631
-0.1614507403
-0.0751107543
-0.009312096551
0.04503238792
0.1029972059
0.1412210961
-0.08161333432
-0.02678934756
0.02791838773
0.08336687763
0.1487283786
0.1822805687
-0.1401639742
-0.0532062647
0.01248910075
0.06177057133
0.1138226519
0.1393467001
-0.07246692231
-0.01075555896
0.0450413951
0.09720093486
0.1339817108
-0.1116477574
-0.02903698076
0.02724241943
0.08046233263
0.1189393339
-0.09977518413
-0.03755150191
0.01707274658
0.06741934299
0.1312523761
0.1687036267
-0.09423911145
-0.04346611918
0.01078268792
0.05192263618
0.1002478822
0.1267938725
-0.0976014351
-0.04825081494
0.001321813484
0.03890923298
0.07787245894
0.1108032114
-0.09173954284
-0.04640774984
-0.003123368393
0.03117171212
0.06571448176
0.09576168518
-0.07218033212
-0.03742527952
-0.003149674908
0.0250873172
0.05393836454
0.077980045
-0.04881202284
-0.02634656306
-0.002080686407
0.01840461755
0.03964615174
0.05622436212
-0.03606985265
-0.02024521536
-0.002270748339
0.01282116823
0.02888112601
0.04162761527
-0.0294112
-0.01712103496
-0.003006320838
0.008877869101
0.02169574835
0.03198873322
-0.02438757317
-0.01469613258
-0.003454147095
0.006071078526
0.01637160476
0.0246361951
-0.02009774382
-0.01251219432
-0.003620132916
0.003931950008
0.01216077678
0.01876627426
-0.01663895422
-0.01070006215
-0.003684311176
0.002279604993
0.008850628007
0.01413009418
-0.01391162141
-0.009246779446
-0.003695878117
0.001027377902
0.006280698938
0.01049675037
-0.01173239564
-0.00806089473
-0.003661951812
8.318476648e-05
0.004281107846
0.00764405241
-0.009979655277
-0.007085551614
-0.003598618202
-0.0006319663424
0.00271867791
0.005399474851
-0.008573873877
-0.006288393293
-0.003521336065
-0.001171775946
0.001496909933
0.003632764166
-0.00744951246
-0.00564023112
-0.003436522255
-0.00158023385
0.0005402800243
0.002242615251
-0.006552102742
-0.005119946278
-0.003370729734
-0.001898927703
-0.000212900635
0.001145513749
-0.00583773505
-0.004705337445
-0.003325217066
-0.002155987781
-0.0008094947122
0.0002757167907
-0.005267968169
-0.004372539113
-0.003282524697
-0.002353761573
-0.001279470391
-0.0004143954746
-0.004813328328
-0.004105461619
-0.003241864285
-0.002504189024
-0.001649502452
-0.0009622764015
-0.004452304651
-0.003893067787
-0.003207818637
-0.002621894884
-0.001943009011
-0.001398146159
-0.004167374137
-0.003725559341
-0.003181716023
-0.002716428918
-0.002177402195
-0.001745551797
-0.003943721429
-0.003594438098
-0.003162848637
-0.002793460918
-0.002365474571
-0.002023052225
-0.003769144443
-0.003492826421
-0.003150361621
-0.002857111106
-0.002517201828
-0.002245498559
-0.00363386258
-0.003415172129
-0.003143480124
-0.002910586671
-0.00264045123
-0.002424647782
-0.003530131163
-0.0033569453
-0.003141511517
-0.002956375472
-0.002741404344
-0.002569705968
-0.003451783336
-0.003314501482
-0.003143960559
-0.002996449045
-0.002824894415
-0.002687866173
-0.003394274561
-0.003285192399
-0.003150430112
-0.003032333533
-0.002894719
-0.002784642845
-0.003353300742
-0.003266323249
-0.003160465247
-0.003065319398
-0.002953841139
-0.002865211226
-0.00332651526
-0.003258555748
-0.003173504865
-0.003095577473
-0.00300382788
-0.002932049718
-0.003311075945
-0.003257160554
-0.003187810183
-0.00312343222
-0.003048970225
-0.002988835069
-0.003304294163
-0.003259599065
-0.00320164746
-0.003149437658
-0.003091881404
-0.003041271923
-0.003304062757
-0.003269696623
-0.003219704928
-0.003173418189
-0.003136783222
-0.0030946861
-0.003316845759
-0.003296856085
-0.003252949592
-0.00321750339
-0.003193748194
-0.003154736379
-0.003344909363
-0.003347826004
-0.003311737447
-0.003286694481
-0.003267967273
-0.00322392279
-0.003397025091
-0.003435580369
-0.003389024597
-0.003371037675
-0.003372582336
-0.003309056546
-0.003493040169
-0.003589878657
-0.003499327343
-0.00348779399
-0.003541129446
-0.003428668521
-0.003742486249
-0.003878126488
-0.003704520408
-0.003700382223
-0.003839944513
-0.003690378837
-0.004291025159
-0.004362954475
-0.003993754806
-0.003983404668
-0.004338548064
-0.004245110097
-0.00633926204
-0.005124293085
-0.00472614661
-0.004707134917
-0.005103371269
-0.006294302827
-0.008610627306
-0.00508358916
-0.004482412555
-0.004437883795
-0.005049656314
-0.008552827579
-0.01493034844
-0.003487451497
-0.006512907451
-0.006451636749
-0.003457484784
-0.01493352049
0.005626835482
-0.003037223651
-0.002888758288
0.005597334267
0.04322896268
0.04522475981
0.03328440308
0.04965264176
-0.09994316314
-0.108533234
-0.09931617145
-0.1002158814
-0.1019927047
-0.1013317823
-0.1009883193
-0.1008390146
-0.1006925544
-0.1005302254
-0.1003476885
-0.1001205229
-0.09983261635
-0.09946976929
-0.09901270217
-0.09843687503
-0.09771212658
-0.09680100678
-0.09565677375
-0.09422120075
-0.09242184109
-0.09016857425
-0.08734919198
-0.0838235333
-0.07941514593
-0.07389872062
-0.06697660875
-0.05821792038
-0.04701268854
-0.0314248257
-0.01422382894
0.006963651817
0.01518095681
-0.06175957393
-0.1169355826
-0.1108940648
-0.098146324
-0.09757492464
-0.1008935559
-0.1015577003
-0.1009129879
-0.1008379292
-0.1008500061
-0.1007613373
-0.100648469
-0.1005108382
-0.1003297943
-0.1000973334
-0.09980255914
-0.09942902972
-0.09895646511
-0.09835974981
-0.09760724982
-0.09665921636
-0.09546590868
-0.09396502654
-0.09207855438
-0.08970870083
-0.0867324097
-0.08299350587
-0.07829122851
-0.0723575342
-0.06482933975
-0.05517487453
-0.04261172474
-0.02785832585
-0.01221997067
0.001808681861
0.01318096378
0.003323869504
0.01735497967
0.03200143038
0.03234016709
-0.04969162542
-0.1087451458
-0.1154990616
-0.1000538581
-0.0962128886
-0.1017632686
-0.1024318729
-0.1014296536
-0.1011367311
-0.1010179483
-0.1009065683
-0.1007840716
-0.1006574708
-0.100507452
-0.1003170046
-0.1000757244
-0.09976984044
-0.0993816147
-0.09888980466
-0.09826779262
-0.09748180933
-0.09648944805
-0.0952375338
-0.09365926001
-0.09167067443
-0.08916596007
-0.08601075524
-0.08203277213
-0.07700062569
-0.0706286337
-0.0625165871
-0.05248166374
-0.04047913162
-0.03044615195
-0.01913560944
-0.0123161274
-0.009355893828
-0.00323745345
0.007131044759
0.0106409256
0.01091429954
0.02121130509
0.02480116216
-0.05078335173
-0.1133378352
-0.1189578631
-0.09554682887
-0.09544792602
-0.1009938417
-0.1014676965
-0.1007285296
-0.1008513804
-0.1009754547
-0.1009702977
-0.1009280702
-0.1008753326
-0.1007988354
-0.1006894971
-0.1005448366
-0.1003580671
-0.1001181151
-0.0998107882
-0.09941808984
-0.09891725989
-0.09827933993
-0.09746753634
-0.0964351801
-0.09512316042
-0.09345653084
-0.09133823943
-0.08864596214
-0.08523549594
-0.08092849505
-0.07553452003
-0.0690332458
-0.06167411508
-0.05439885908
-0.04746909141
-0.04102747099
-0.03089371902
-0.02628877851
-0.01735369121
-0.008715074059
-0.005392686598
0.003553688447
0.003993530692
0.01219318254
0.01031815399
-0.05013513006
-0.106684978
-0.1207345666
-0.09701156915
-0.09542428259
-0.1016932217
-0.1018890575
-0.1011040769
-0.1011228268
-0.1011934024
-0.1011659331
-0.1011452469
-0.1011335602
-0.1011150317
-0.1010833447
-0.1010374601
-0.1009744649
-0.1008893291
-0.1007754658
-0.1006243919
-0.100425157
-0.1001634232
-0.09982048663
-0.09937214046
-0.09878716476
-0.0980259137
-0.09703703717
-0.09575475568
-0.0941000025
-0.09198229688
-0.08931182486
-0.08596645576
-0.08190706473
-0.07708709167
-0.07193088506
-0.06482121518
-0.0553915888
-0.04939705592
-0.04334914387
-0.03565298142
-0.02600791055
-0.01743708922
-0.01160972404
-0.001982244199
-0.001798404389
0.007264862131
-0.004696379748
-0.04994770696
-0.1062884673
-0.120702617
-0.09704175457
-0.09545685732
-0.1017415635
-0.1019630462
-0.1011904025
-0.101218665
-0.1013199577
-0.1013304526
-0.1013468598
-0.1013856574
-0.1014292672
-0.1014760355
-0.1015291206
-0.1015901488
-0.1016603656
-0.1017412303
-0.1018342313
-0.101940775
-0.1020620436
-0.1021988257
-0.1023513196
-0.1025189736
-0.1027004874
-0.1028939829
-0.103097868
-0.1033130037
-0.1035392541
-0.1037629056
-0.1038792688
-0.1036294706
-0.1025092333
-0.09957404066
-0.09590473651
-0.09163252907
-0.08430309064
-0.07341913568
-0.06080189121
-0.04768654924
-0.03818039736
-0.03023492431
-0.01925953879
-0.01434346958
-0.008984205719
-0.007408248897
-0.003912933568
-0.05098882161
-0.1131298416
-0.1189464957
-0.09568256915
-0.095621752
-0.1011790054
-0.1016877124
-0.1009937013
-0.1011790061
-0.1013652235
-0.1014532987
-0.1015332187
-0.101635275
-0.1017478848
-0.1018761862
-0.1020304967
-0.1022185006
-0.1024481486
-0.1027293364
-0.1030741336
-0.103497206
-0.1040164774
-0.1046539512
-0.1054367784
-0.1063988035
-0.1075829564
-0.1090451445
-0.1108602564
-0.1131323536
-0.115994233
-0.1196046158
-0.1238688291
-0.1283719696
-0.1314862427
-0.1317444346
-0.1294285675
-0.1251384718
-0.1180199179
-0.1082859259
-0.09624082105
-0.08128498945
-0.06677190046
-0.05275356348
-0.03733152674
-0.02542951862
-0.01430344106
-0.004306181886
-0.008817736812
0.004489241227
-0.007068270432
-0.04995033772
-0.1096063965
-0.1159118705
-0.1003074001
-0.09646611744
-0.102080385
-0.1028209993
-0.1019424874
-0.1016728864
-0.1016680826
-0.1017093542
-0.101792303
-0.1019106059
-0.1020694649
-0.1022707171
-0.1025212653
-0.1028322432
-0.1032178107
-0.1036959992
-0.1042894948
-0.105026614
-0.1059428012
-0.1070826957
-0.1085028359
-0.11027555
-0.1124949493
-0.1152867254
-0.118824144
-0.1233612891
-0.129267213
-0.1371550826
-0.1474226594
-0.1600205814
-0.1704724299
-0.175318274
-0.1749226411
-0.1736442324
-0.1692605208
-0.1527337003
-0.1322711255
-0.1145007498
-0.09855511548
-0.07897689637
-0.06030090507
-0.04315951234
-0.02448965334
-0.009336061777
0.0005237799516
0.01355307454
0.02455675448
0.039146249
-0.0604544612
-0.1175203444
-0.1112888063
-0.09839593099
-0.09790803212
-0.101281431
-0.1020102691
-0.1013679986
-0.1014756286
-0.1016459699
-0.1017580829
-0.1018876071
-0.1020503549
-0.1022503987
-0.1024989383
-0.1028082589
-0.1031928058
-0.1036710433
-0.1042663162
-0.1050079204
-0.1059327087
-0.1070871823
-0.108530388
-0.1103378713
-0.1126074553
-0.1154680956
-0.1190946689
-0.1237329005
-0.1297548121
-0.1377270663
-0.1486967922
-0.1638222075
-0.1847612008
-0.2025806666
-0.2106231609
-0.2105752853
-0.2107103136
-0.2032790728
-0.1846717588
-0.1762315615
-0.159848214
-0.1329498034
-0.1085898498
-0.08780156633
-0.06363055088
-0.0379506545
-0.0150968786
0.006001798436
0.02728479047
0.04656681449
0.06976405235
0.09018574852
-0.05633868977
-0.1137784637
-0.1005217221
-0.1088924363
-0.09972709418
-0.1006553705
-0.1024834034
-0.101975636
-0.1017667202
-0.1018092086
-0.1019179341
-0.1020519778
-0.1022381034
-0.102479798
-0.102783888
-0.1031644917
-0.1036398208
-0.1042331434
-0.104974163
-0.10590043
-0.1070593858
-0.1085112933
-0.1103330334
-0.1126234699
-0.1155112178
-0.1191664236
-0.12382013
-0.12979607
-0.1375842407
-0.1479478147
-0.1625226164
-0.1841852834
-0.22010875
-0.2500680582
-0.2619932859
-0.2659684647
-0.268035719
-0.2769048226
-0.2455826989
-0.218684633
-0.196698568
-0.1793923628
-0.1547123684
-0.1168822981
-0.08686299145
-0.05900799469
-0.02949702432
-0.002133840336
0.03229355655
0.06302910901
0.09174560798
0.12194214
0.1565765861
-0.2633161773
-0.286488698
-0.2613250756
-0.2216950594
-0.1909933668
-0.1617708508
-0.127645105
-0.0869562094
-0.05106164631
-0.0142327469
0.02302805876
0.06480224296
0.1024198223
0.1374548517
0.1749003545
0.2132676883
-0.2863851941
-0.2898757891
-0.2555979406
-0.1985501981
-0.1630775736
-0.1235405156
-0.075370145
-0.03500077722
0.005426829099
0.04875104369
0.09610732808
0.1375381549
0.175294272
0.2116194675
0.2526892956
-0.2784354531
-0.2723431158
-0.2208789855
-0.1654856719
-0.124335004
-0.07619654835
-0.01948564542
0.02645523083
0.07220200875
0.1230635405
0.1655185512
0.2022405615
0.220814419
-0.2506646188
-0.223572432
-0.1657937829
-0.1163385568
-0.06216165485
-0.001957019241
0.04610442545
0.0928940219
0.1443845509
0.1900491849
0.2234932074
0.2500448255
-0.2595729941
-0.2151648178
-0.158592702
-0.09868210456
-0.03587553876
0.01402506825
0.06175747959
0.1115169038
0.1629833954
0.2051768826
0.2380464585
0.2797238901
-0.2568510765
-0.2166645179
-0.1547705022
-0.08746992139
-0.02310778612
0.03163906414
0.08274116404
0.1365913755
0.1817190237
0.2219398676
0.2373396695
-0.2554424925
-0.2144604488
-0.1397975936
-0.07142199755
0.001745437543
0.05216103942
0.1001288392
0.1563389768
0.2024956785
0.2393230015
0.2747220893
-0.2297388749
-0.1765582752
-0.1024035328
-0.02939304133
0.02152969959
0.0706829175
0.1217460106
0.1750997334
0.2195751412
0.2331884033
-0.3030524123
-0.2254733864
-0.1594376078
-0.08462144652
-0.01222128069
0.04495544914
0.09744366701
0.1526962223
0.1954432332
0.2356195839
0.2691967734
-0.2510259745
-0.1861252738
-0.1150263092
-0.03849686608
0.02030813266
0.0702789163
0.1221987705
0.1718964693
0.2195505812
0.2411114359
-0.3312284179
-0.2271458974
-0.1605699919
-0.08069174215
-0.007327298735
0.04571633282
0.1001649355
0.1545231169
0.1943842461
0.2152640722
-0.2499595223
-0.1790024914
-0.1074446437
-0.02969197219
0.02817278953
0.07977703251
0.1371012322
0.1820987015
0.225376894
0.2569271219
-0.3156176244
-0.200790552
-0.1405083302
-0.06307703602
0.009419715056
0.05805430724
0.1085013863
0.1594773936
0.2047673607
0.2294845199
-0.2274643236
-0.1578077833
-0.08828219881
-0.008159850595
0.04003424379
0.09333196412
0.1424771429
0.1822789805
0.2122295099
-0.2762167007
-0.1713236035
-0.1050744455
-0.02161446032
0.02744439637
0.07895380262
0.1314577996
0.1689050314
0.2018328946
-0.2634919883
-0.1747072316
-0.1054723841
-0.03358859746
0.01902259288
0.06408634391
0.1148957537
0.1574067152
0.1763062976
-0.2424135392
-0.1685914766
-0.1039908262
-0.04260527356
0.01018507394
0.0490420253
0.08908049077
0.136404623
0.185240269
0.2206886956
-0.2278930138
-0.1609908601
-0.1021061244
-0.04644942808
0.001421217695
0.03800318218
0.0768330559
0.1137155991
0.1508220537
0.173418579
-0.2024820607
-0.1433922722
-0.09263565962
-0.04466021474
-0.003501970755
0.03003431055
0.06574707955
0.09531394731
0.1218248369
0.1460263221
-0.1552001112
-0.1143868382
-0.07610318011
-0.03851564663
-0.0050307239
0.02372041308
0.05306848502
0.07890928452
0.103791299
0.1269071179
-0.1031927117
-0.08237278641
-0.05745819989
-0.03087078636
-0.004934590124
0.01837364409
0.04108208321
0.0611195081
0.07990906849
0.09216936501
-0.07557951395
-0.0616639744
-0.0438122683
-0.02451871158
-0.004814709963
0.01371434611
0.03124029492
0.04662174929
0.06001459433
0.06859522916
-0.06012518417
-0.04919218623
-0.0351260097
-0.02018995589
-0.004878751905
0.009823339603
0.02361129367
0.03594483841
0.04662840885
0.05390679181
-0.04823152096
-0.03982755499
-0.02876297451
-0.01698377448
-0.004879865944
0.006858990093
0.0178566061
0.02783484678
0.03655800012
0.04245817795
-0.03856514336
-0.0321475935
-0.02353643963
-0.01430775015
-0.004747890008
0.004606117138
0.01338390144
0.02139350331
0.02840131096
0.03311144581
-0.03101582962
-0.02605772672
-0.01932626066
-0.01209668742
-0.004563903769
0.002857675466
0.009855102758
0.01626531624
0.02189014705
0.02568228106
-0.02514529036
-0.02129743405
-0.01601046798
-0.01032332792
-0.00437647081
0.001511454041
0.007092809453
0.01222277898
0.0167445336
0.01979560597
-0.02052911995
-0.01753615785
-0.0133780902
-0.008895539903
-0.004192166047
0.0004832146161
0.004935962739
0.0090367935
0.01266706436
0.01511594463
-0.01688232171
-0.01454684271
-0.01127306299
-0.007737010599
-0.004015385921
-0.0003035221192
0.003246523606
0.006520638445
0.009430689601
0.01139421372
-0.01399944694
-0.01217204264
-0.009591557634
-0.006799256065
-0.003853064231
-0.0009065652365
0.001921179171
0.004533032816
0.006862412507
0.008435069501
-0.01171924302
-0.01028640277
-0.008250727131
-0.006043298357
-0.003709129428
-0.001370850927
0.0008798780352
0.002962600631
0.00482429795
0.006082408383
-0.009914885652
-0.008789530733
-0.007182787149
-0.005437046521
-0.00358757765
-0.001731734487
5.923755145e-05
0.001719590694
0.003205900116
0.00421148633
-0.00848692494
-0.007602071779
-0.006333271519
-0.004952621645
-0.003487719521
-0.002014705885
-0.0005895397763
0.0007335683654
0.001919801878
0.002722975127
-0.007356871969
-0.006660483537
-0.005657589574
-0.004565423798
-0.003405244156
-0.002236272013
-0.001102684106
-4.925075422e-05
0.0008972760156
0.001538150316
-0.006462928808
-0.005914350647
-0.005120736636
-0.004256544583
-0.003337580488
-0.002410049109
-0.001509018719
-0.0006712025043
8.37637416e-05
0.0005945759523
-0.005756491641
-0.005323979397
-0.004695494112
-0.004011578683
-0.003283547732
-0.002547641115
-0.001831898
-0.001166081508
-0.0005641607625
-0.0001573605807
-0.005199101499
-0.004857818492
-0.004359926098
-0.0038185786
-0.003241744164
-0.002657878666
-0.002089502854
-0.001560553356
-0.001080897716
-0.0007571148362
-0.004760141258
-0.004490666471
-0.004096179518
-0.003667539491
-0.003210421016
-0.002747167623
-0.002295871402
-0.00187568869
-0.00149368824
-0.001236093786
-0.004415279157
-0.004202413245
-0.003889835459
-0.003550301992
-0.003187966692
-0.002820365869
-0.002462008455
-0.00212820876
-0.001824145649
-0.001619273684
-0.004145186112
-0.003977006688
-0.003729328433
-0.003460316649
-0.003173002512
-0.002881224222
-0.002596585025
-0.002331339395
-0.002089404926
-0.001926497768
-0.003934567089
-0.00380169822
-0.003605474075
-0.003392248575
-0.003164335878
-0.002932647279
-0.002706411108
-0.002495486802
-0.002303054131
-0.00217354946
-0.003771273298
-0.003666365851
-0.003511002001
-0.003341846599
-0.003160936865
-0.002976829667
-0.002796848103
-0.002628908517
-0.002475827658
-0.002372914527
-0.003645800436
-0.003563058225
-0.003440128208
-0.003305773808
-0.003162103148
-0.003015554845
-0.002872026094
-0.002737938275
-0.002616364276
-0.002534561304
-0.003550521353
-0.003485586813
-0.003388240341
-0.003281181335
-0.003167203409
-0.003050081368
-0.002935532922
-0.00282815858
-0.002731545343
-0.002666453949
-0.003479822548
-0.003429038191
-0.003351840615
-0.003266915168
-0.003176210449
-0.00308124923
-0.002988776943
-0.002903367037
-0.002827326046
-0.002775447629
-0.003429143981
-0.003389757036
-0.00333016152
-0.003261479015
-0.003187724153
-0.003111014701
-0.003035597251
-0.002967268453
-0.002907668766
-0.002867248866
-0.003394805258
-0.003365370665
-0.003319439396
-0.003263180013
-0.0032021865
-0.003140399438
-0.003080128564
-0.003025665226
-0.002979005485
-0.002946537676
-0.003375203047
-0.003352781426
-0.003317551951
-0.003274745506
-0.003223170547
-0.003171922228
-0.00312540379
-0.003082864903
-0.00304772685
-0.00301963574
-0.003372301858
-0.003355749074
-0.00332753846
-0.003298112292
-0.003252499485
-0.003210831482
-0.003176116556
-0.003143409077
-0.003117994362
-0.003093419368
-0.003390383918
-0.00338141257
-0.003349739649
-0.003337458843
-0.003293306271
-0.003261133344
-0.003237124491
-0.003209469747
-0.003194747932
-0.003172923052
-0.003431098647
-0.003437015534
-0.003386504472
-0.003401562068
-0.003343861265
-0.003320630344
-0.003321545559
-0.003282292959
-0.003290682553
-0.003260561475
-0.003510388436
-0.003536421809
-0.003460124991
-0.003504358272
-0.003407200856
-0.00339106678
-0.003444360365
-0.003381142716
-0.003425482824
-0.003379665184
-0.003570542341
-0.003695908553
-0.0035352923
-0.003654738196
-0.003475730462
-0.003463939843
-0.003619742889
-0.003467764469
-0.003610330989
-0.003472387247
-0.004150727393
-0.00379268477
-0.003779023838
-0.003807524649
-0.003522443638
-0.003505940841
-0.003784394906
-0.003725589187
-0.003734271689
-0.004057451488
-0.004267803578
-0.003608796737
-0.003364049258
-0.003920381577
-0.003395413916
-0.003349450058
-0.003941764403
-0.003298339007
-0.003522998916
-0.004182815845
-0.01021228809
0.0006116565913
-0.003547165242
-0.003207632234
-0.003089843061
-0.003069520441
-0.003194095021
-0.003451400155
0.0007255147688
-0.01005515679
-0.009077081859
0.004387988711
-0.006152658292
-0.002445108762
-0.002337765467
-0.002296293927
-0.002396888197
-0.006105167457
0.004596147012
-0.00880798472
0.02530020472
-0.007639482273
-0.0004877950187
-0.0007712322956
-0.0007035432311
-0.0002724263654
-0.007851124451
0.02578963738
0.0492954418
0.01592290588
0.002587274764
-0.003478794127
-0.003054861727
-0.003036344441
-0.003583505994
0.002205065513
0.02030255776
0.01049849669
-0.1032979995
-0.1117989327
-0.09965091639
-0.09930987505
-0.1015780121
-0.1010855123
-0.1008449354
-0.1007175154
-0.1005530683
-0.1003597238
-0.1001300129
-0.0998438171
-0.09948406637
-0.09903297798
-0.09846707545
-0.09775679631
-0.09686588563
-0.09574957026
-0.09435234787
-0.09260555166
-0.09042437047
-0.08770413962
-0.08431571523
-0.08009949538
-0.07485643804
-0.06833703416
-0.06019993779
-0.05003146159
-0.03673880234
-0.02004784309
0.005069764282
0.01543600715
0.03700351974
0.0381894067
-0.04390260369
-0.115201687
-0.1178113325
-0.1016401778
-0.09881764401
-0.1021108655
-0.1020026844
-0.1012778305
-0.1009558296
-0.1007911558
-0.1006266243
-0.1004486865
-0.100245567
-0.09999132413
-0.09967010022
-0.09926622837
-0.09875861791
-0.09812034907
-0.09731833871
-0.09631171603
-0.09504970987
-0.09346928093
-0.0914922966
-0.08902202117
-0.08593871178
-0.08209393243
-0.07730249535
-0.07133118068
-0.06387476421
-0.0545452634
-0.04280405048
-0.02845516071
-0.01248220371
0.001956348655
0.01473535849
0.02395913751
0.02891125337
0.03399645366
0.0362065085
0.05027791299
0.0391335383
-0.05067464069
-0.11356059
-0.1190029091
-0.09618723382
-0.09535039947
-0.1008580873
-0.1011107273
-0.1004977904
-0.1006975392
-0.1007669384
-0.1006887323
-0.1005673343
-0.100411949
-0.1002068182
-0.09994248357
-0.09960723316
-0.09918419402
-0.09865123273
-0.09798004501
-0.09713557237
-0.09607432975
-0.09474215981
-0.09307172504
-0.09097949498
-0.08836206859
-0.08509178172
-0.08101144043
-0.07592886522
-0.06961217794
-0.06180656328
-0.05226409645
-0.04104655421
-0.02845877351
-0.01586113198
-0.004161550025
0.005915297007
0.009531372408
0.01538292454
0.01908415871
0.02493400037
0.02553658142
0.04033154408
0.03036473416
-0.05344852198
-0.1086445606
-0.1183827751
-0.09711935479
-0.09756721352
-0.1020828075
-0.1017147131
-0.1009224627
-0.1009456054
-0.1009404547
-0.1008558115
-0.1007542168
-0.1006382932
-0.1004899166
-0.1002987591
-0.1000549285
-0.09974499475
-0.09935210145
-0.09885484249
-0.0982263833
-0.09743314213
-0.09643302485
-0.09517339048
-0.09358857393
-0.09159693005
-0.08909771685
-0.08596814602
-0.08206253604
-0.07721899002
-0.0712652996
-0.06403584385
-0.0555678867
-0.04562832881
-0.03609451304
-0.02495465398
-0.01468708968
-0.009356251049
-0.004145715211
0.0009386934039
0.00604588162
0.01197885299
0.01690348654
0.01326622394
0.02074009757
0.02163215249
0.01649965161
-0.05645133516
-0.1093765887
-0.1213597317
-0.09828059102
-0.09617430992
-0.1015143512
-0.1015366733
-0.1007392075
-0.1008471498
-0.1009715652
-0.1009572714
-0.1009139614
-0.1008596257
-0.1007798233
-0.1006685442
-0.10052167
-0.100331028
-0.1000857806
-0.09977201471
-0.0993719486
-0.09886286338
-0.09821597175
-0.09739494861
-0.09635409195
-0.09503610338
-0.09336980981
-0.09126975367
-0.08863332076
-0.0853342778
-0.08125274747
-0.07626556627
-0.07030386149
-0.06332352046
-0.05594030806
-0.04855713775
-0.04225001031
-0.03456492022
-0.0263090875
-0.02034731714
-0.01228412532
-0.004521512364
0.0001075828022
-0.0003063166463
0.005529851667
0.0005364915558
0.00147668379
-0.01371929575
-0.05737526291
-0.1081166897
-0.1219578857
-0.09806837786
-0.09527332725
-0.101616484
-0.1016778222
-0.1009962993
-0.101058721
-0.1011637638
-0.1011549767
-0.1011386057
-0.1011277157
-0.1011063625
-0.1010735171
-0.1010272731
-0.1009633552
-0.1008767846
-0.1007613284
-0.1006088488
-0.1004086623
-0.100146842
-0.09980531063
-0.09936076883
-0.09878311446
-0.09803337328
-0.09706256418
-0.09581003068
-0.09419447965
-0.09214204892
-0.08954337233
-0.08631248025
-0.08240160621
-0.07775200515
-0.07251222011
-0.06630456875
-0.059185752
-0.05283376701
-0.04557875197
-0.03784455832
-0.02934883861
-0.02139935856
-0.01548486604
-0.007681643522
-0.007624524625
-0.007489968573
-0.02084030271
-0.01582236119
-0.04892813322
-0.0573789103
-0.1081301143
-0.1219958747
-0.09812276158
-0.09532548347
-0.1016722345
-0.1017482071
-0.1010856923
-0.1011671639
-0.1013040761
-0.10132881
-0.101352286
-0.101394036
-0.1014398388
-0.1014901564
-0.1015478585
-0.1016145524
-0.1016920198
-0.1017822845
-0.101887477
-0.1020098273
-0.102151522
-0.1023145338
-0.1025003722
-0.1027096348
-0.1029414074
-0.1031923306
-0.1034548306
-0.1037133989