/*--------------------------------*- C++ -*----------------------------------*\
| =========                 |                                                 |
| \\      /  F ield         | OpenFOAM: The Open Source CFD Toolbox           |
|  \\    /   O peration     | Version:  4.1                                   |
|   \\  /    A nd           | Web:      www.OpenFOAM.org                      |
|    \\/     M anipulation  |                                                 |
\*---------------------------------------------------------------------------*/
FoamFile
{
    version     2.0;
    format      ascii;
    class       surfaceScalarField;
    location    "1";
    object      phi;
}
// * * * * * * * * * * * * * * * * * * * * * * * * * * * * * * * * * * * * * //

dimensions      [0 3 -1 0 0 0 0];

internalField   nonuniform List<scalar> 
70319
(
0.4654905393
-0.09670933819
0.03882475385
-0.1812959715
-0.2263099835
0.4656500122
0.02010220447
-0.02026167753
0.4696283417
0.004318846284
-0.00829717588
0.4677444752
-0.0003762273751
0.00226009383
0.46612799
-0.0006884506518
0.002304935797
0.4658419492
-0.0004484561918
0.0007344969942
0.4658512226
-5.178989444e-05
4.251644331e-05
0.4658503835
0.0001805060431
-0.0001796669354
0.4658226426
0.0003369044339
-0.0003091635427
0.4657764929
0.0004711657251
-0.0004250161114
0.4657154292
0.0006143955913
-0.0005533318487
0.4656388866
0.0007794313622
-0.0007028888089
0.465544095
0.0009809492146
-0.0008861576508
0.4654255275
0.00123235791
-0.001113790563
0.4652761545
0.001547245072
-0.001397872106
0.4650874594
0.001941949908
-0.001753254925
0.4648486391
0.002436799117
-0.002197978862
0.4645459438
0.003056980741
-0.002754285538
0.4641618185
0.003833889934
-0.003449764776
0.4636737492
0.004806663098
-0.004318593878
0.4630526967
0.006023966203
-0.005402913784
0.462260965
0.007546220944
-0.006754489422
0.4612492068
0.00944828054
-0.008436522501
0.4599523699
0.0118225316
-0.0105256948
0.458284258
0.01478290246
-0.01311479076
0.4561309811
0.01847151509
-0.01631823838
0.4533338313
0.0230724236
-0.02027527397
0.4496693818
0.02882920196
-0.02516475287
0.4444998914
0.03616394205
-0.03099445208
0.4372054043
0.04543784375
-0.03814335731
0.4274001073
0.05787424273
-0.0480689467
0.4119546503
0.07313399475
-0.05768853888
0.3542932474
0.09050603789
-0.03284463638
0.1871173025
0.167175944
0.09643016765
-0.002091317259
0.005471281894
0.9022869064
-0.004694549173
-0.02303408637
-0.1119627191
-0.1710805487
-0.3148218341
-0.2521493594
-0.0297128613
0.005169052207
0.7789452732
0.01248010474
0.01415219022
0.7722113957
0.006306349011
0.02052973278
0.7646078024
0.002252597709
0.009669841672
0.7599912763
0.0009264671918
0.00331383146
0.757897757
0.0005868907956
0.0008181778237
0.7568998972
0.000388873447
0.0001605301382
0.7564057286
0.000379573644
6.280509187e-05
0.7561415441
0.0004338844057
1.080612122e-05
0.7559974511
0.0005130969829
-3.20996163e-05
0.755901636
0.0006358360676
-6.885527604e-05
0.7558187867
0.0008024276997
-0.0001051828266
0.7557323964
0.001009564092
-0.0001437424143
0.7556330868
0.001267199484
-0.0001869407614
0.7555116562
0.001591621655
-0.0002378331542
0.7553598696
0.001998899575
-0.0002998679624
0.7551679445
0.002510253114
-0.0003763781862
0.7549235423
0.003152445863
-0.0004712446735
0.7546113338
0.003958344183
-0.0005891549994
0.7542117145
0.004969165714
-0.0007356565807
0.7536988463
0.006237137229
-0.0009176060321
0.7530390128
0.007827179172
-0.001143379553
0.7521876432
0.009820558346
-0.001422967937
0.751085346
0.01231872254
-0.001768144899
0.7496524356
0.01544786024
-0.002192418378
0.7477817396
0.01936422682
-0.00271062848
0.745328655
0.02426151887
-0.003336919372
0.7420927115
0.03038735829
-0.004078991386
0.7377850566
0.03807194924
-0.004935092608
0.7319141853
0.04784817704
-0.005813364083
0.7240049986
0.06024609474
-0.006899064804
0.7131952297
0.07708683975
-0.008402828824
0.692922085
0.09645617416
-0.003049035596
0.636143951
0.1221821551
0.02510201585
0.5053041017
0.1376742779
0.1802828726
0.4452397347
0.1460234914
-0.08595912538
0.4135812283
0.1530511438
-0.1213926386
0.355970918
0.1661632509
-0.1085529423
0.230021722
0.1259491949
0.00382863051
0.1923198297
-0.001551305361
0.03203438984
0.9222521811
0.0002321307906
0.006926269806
-0.2003835321
-0.214317761
-0.2569800849
-0.262423753
0.9105854037
0.0002322770899
0.02391460489
0.897182336
0.0003052155099
0.01940420093
0.8910357045
0.0003099800279
0.008089249089
0.8890021166
0.0002944429693
0.002665612006
0.8882345109
0.0002983049923
0.001056191386
0.8878472325
0.00031434865
0.0004618032077
0.887631314
0.0003610380938
0.0002344539701
0.8875065556
0.0004390500119
0.0001195928622
0.8874268626
0.0005376963911
5.509349805e-05
0.8873670059
0.0006744226546
2.127013674e-05
0.8873173643
0.0008492722386
2.79701353e-06
0.8872706209
0.001067103086
-1.079567255e-05
0.8872191149
0.00133980145
-2.109594769e-05
0.8871581252
0.001683017376
-3.040612264e-05
0.8870820567
0.002114668381
-3.97003771e-05
0.8869846692
0.002657342492
-4.970190535e-05
0.8868585229
0.003339540148
-6.094811714e-05
0.8866937799
0.004196950288
-7.386316748e-05
0.8864772698
0.005274496616
-8.88209276e-05
0.8861916269
0.006628750775
-0.0001059707296
0.885813287
0.008330738244
-0.0001252192435
0.8853101978
0.01046986317
-0.0001462157141
0.8846383407
0.01315863957
-0.0001680601159
0.8837368216
0.01653819897
-0.0001888196853
0.8825213271
0.02078461913
-0.0002048979574
0.8808754013
0.02611701992
-0.0002095753995
0.8786386688
0.03281523621
-0.0001911455921
0.8755780263
0.04125244414
-0.00011985264
0.8713262976
0.0520332601
6.664529771e-05
0.8653411805
0.0659203992
0.0003108121201
0.8566027758
0.08491147302
0.0009137709373
0.8404256927
0.1080553345
0.004577921977
0.8115097658
0.1359555891
0.01514249227
0.762643484
0.1598223359
0.02671822303
0.7231540285
0.1846287805
0.0008841656351
0.6843559892
0.2083073591
-0.01645817687
0.6215798548
0.2353639953
-0.00642461106
0.4951318693
0.2390967222
0.1173729839
0.4125230427
0.2358132354
-0.1532044104
0.344066837
0.2313240812
-0.1628678775
0.2626797598
0.08138707591
-0.0006933175541
0.2045771208
0.001927939599
0.03556072121
0.9219477347
0.003287699515
0.006647084423
-0.2140631273
-0.1995591847
-0.2620267312
-0.2560013449
0.9108323309
-0.01244883457
0.02379651522
0.8976343764
-0.005858959323
0.01936212921
0.8915304439
-0.001651348229
0.008065260522
0.8895102238
-0.0003402012828
0.002654864247
0.8887438523
6.642318908e-06
0.001058034138
0.8883743247
0.0002107065434
0.0004731696446
0.8881799327
0.0003121412797
0.0002432888573
0.8880813755
0.0004048062915
0.0001328008632
0.8880331344
0.0005074395816
7.849787388e-05
0.8880127289
0.0006415488696
5.327924377e-05
0.888008645
0.0008106489705
4.270717689e-05
0.8880170516
0.001018452751
4.024364551e-05
0.8880349455
0.001278577721
4.332986877e-05
0.8880608954
0.001606243844
5.082352162e-05
0.8880941787
0.002018854458
6.25305773e-05
0.88813432
0.002538384779
7.881634771e-05
0.8881809733
0.003192377917
0.0001005088649
0.8882333623
0.004015649508
0.0001289116842
0.8882899518
0.0050520153
0.0001658917958
0.888347882
0.006356866554
0.0002139538408
0.8884020016
0.008000271839
0.0002763467673
0.8884436561
0.01007091949
0.00035728904
0.8884588855
0.01268119449
0.0004622155995
0.888425894
0.01597322012
0.0005979702142
0.8883121262
0.02012554013
0.0007728467456
0.8880718107
0.02536092137
0.0009964138506
0.8876462742
0.03196205133
0.001278721226
0.8869663314
0.04029951242
0.001632874396
0.885952947
0.05096778774
0.002078856446
0.8844276711
0.06463190173
0.002813773029
0.8813566377
0.08335447813
0.004628027763
0.8744185286
0.1073897944
0.007603648616
0.8632015874
0.1352667747
0.01190575506
0.844498213
0.1645479719
0.01397773783
0.828035194
0.1925603524
0.008531446539
0.8061647542
0.2294626057
0.0007151924848
0.7764781099
0.2674842494
-0.002433610372
0.7200474578
0.2900053036
0.005522069842
0.6663881771
0.3086467932
-0.01917427832
0.5879883051
0.3285161809
-0.0187922289
0.4726655947
0.3128755672
0.06512690058
0.3378160089
0.2951046664
-0.1602550832
0.2797115147
0.0581044916
-0.001619467261
0.1564105161
0.001073056286
0.02602361941
0.9025582663
-0.02385039139
-0.1705276452
-0.1116194698
-0.2510591677
-0.3146016865
-0.03180820687
0.004196000755
0.7793880348
0.09668376366
0.01403763286
0.7728504575
-0.0198844666
0.02056308423
0.765424243
-0.004016302476
0.00979116863
0.7609242225
0.000754212045
0.003405607001
0.7589281825
0.001086583896
0.0009160983774
0.7579757954
0.0009012732207
0.0002618204376
0.757525897
0.0005915401825
0.0001704994644
0.7573276012
0.0004591201774
0.0001439818448
0.757249797
0.0004551976137
0.0001300461337
0.7572351343
0.0005255734582
0.0001306380831
0.7572592468
0.0006414328154
0.0001451036976
0.7573094364
0.0007973638749
0.0001708992021
0.7573808345
0.000998680192
0.0002084993761
0.7574739359
0.001254134133
0.0002590083283
0.7575915004
0.00157674552
0.000324544314
0.757737884
0.001983591731
0.0004084093966
0.7579186735
0.002496480614
0.0005151077327
0.7581407453
0.003143077227
0.0006505003905
0.7584122228
0.003958397756
0.0008221400569
0.7587424782
0.004986953142
0.001039657869
0.7591420979
0.006285333027
0.00131531907
0.7596227113
0.007925647401
0.001664658562
0.7601966249
0.01000009554
0.002107185233
0.7608763673
0.0126264789
0.002666998675
0.7616744206
0.01595453377
0.003372952932
0.762604494
0.02017302011
0.004257827811
0.7636899721
0.02552240327
0.005354169834
0.7649828016
0.0323130386
0.006693644051
0.7666331676
0.04104773627
0.008269685261
0.7685311981
0.05225774338
0.01047612749
0.7694139028
0.06696209269
0.01550968044
0.76862192
0.0861170763
0.02206470051
0.7667248978
0.1085211794
0.02864261713
0.7674723419
0.1326101925
0.03119033491
0.7766851156
0.1565328401
0.02681473802
0.7918596732
0.2002489302
0.01403911771
0.8144797825
0.2588262053
-0.01396206578
0.8041419124
0.3075840235
-0.00724085076
0.778533412
0.3422049704
-0.007949677712
0.7358636314
0.375161993
-0.003976032935
0.658700523
0.3872052759
0.00283339793
0.5650681393
0.3946857621
-0.005948714733
0.4031247986
0.3689012236
0.07275362746
0.3349756372
0.06814915838
0.4659799299
0.03867649767
-0.2265902148
-0.1813824492
0.4662200127
-0.02012454959
0.470275229
-0.008071518956
0.4684521787
0.002577262313
0.4668783953
0.002660367248
0.4666403783
0.001139290147
0.4666999469
0.0005319716021
0.4667565524
0.000402514626
0.4668005509
0.0004111991638
0.4668457213
0.000480403004
0.4668991733
0.0005879808075
0.4669655117
0.000731025399
0.4670497279
0.0009144639428
0.4671558721
0.001147989922
0.4672887724
0.001443845232
0.4674547662
0.001817597823
0.4676614
0.002289846778
0.4679182413
0.002886235898
0.4682369976
0.003639641338
0.4686318615
0.00459208919
0.4691200928
0.005797101619
0.4697227631
0.007322977028
0.470465476
0.009257382564
0.4713794578
0.01171249704
0.4725028204
0.01483117106
0.47388182
0.01879402038
0.4755770364
0.02382718675
0.4776645914
0.03022548343
0.4805130608
0.03819926667
0.484706526
0.04806427798
0.487773648
0.06389497057
0.4892372194
0.08465350467
0.4896325922
0.1081258065
0.4968119249
0.1254308596
0.5217814039
0.1315633611
0.5829641363
0.1390661974
0.6969839779
0.2784437164
-0.133637353
0.7598270139
0.2579843492
-0.01324336211
0.7907170772
0.3252882506
-0.01397334455
0.7853856292
0.3824356322
-0.001942192551
0.751569829
0.4220796161
-0.001058541755
0.693039761
0.4509233466
0.00229248124
0.5900520027
0.4593933384
0.01249564057
0.4633939865
0.4329156694
0.02871797882
0.3167707616
0.3883886525
-0.2417654333
0.3219706946
-0.005199937428
0.4160106382
-0.1375669219
0.552676151
0.1213188361
0.6719776988
0.3131650588
-0.1071783573
0.7358916951
0.3145997427
0.00392189239
0.7602647399
0.4005075391
-0.002800969574
0.7427386404
0.4633013556
0.005148088569
0.6946958529
0.5052609708
0.002175152262
0.6121419706
0.5220598906
-0.006590342161
0.5196281281
0.515422452
-0.03451996125
0.3756470245
0.4709942673
-0.005042475262
0.3645578657
0.01108915472
0.4084802388
-0.09531518007
0.5403923056
0.1826876749
0.6426883456
0.3486574467
-0.05044594919
0.7035856246
0.3805422653
0.02186180942
0.7181826498
0.4907741635
-0.0001102199643
0.6916162934
0.5524628739
-0.003836629809
0.6286916125
0.586151963
-0.007804833244
0.526608345
0.5816972013
-0.00861967019
0.3755787693
0.5274646617
-0.01187722607
0.3949191613
-0.01934039684
0.4002088004
-0.05155135456
0.5440925359
0.2366585286
0.6444620798
0.4100039604
-0.01959934307
0.6916097128
0.5042568149
0.001058423919
0.673198409
0.5991957475
0.005367517144
0.6133698525
0.6435945767
-0.002068821757
0.511359219
0.6425995015
-0.01312420991
0.3748166497
0.5787879653
-0.04732624013
0.4215830708
-0.04676642527
0.4458861737
-0.03588221453
0.5620823443
0.3936323046
-0.005571662424
0.6360731621
0.4878421982
0.03736272954
0.6432579263
0.6254447658
0.01096504487
0.5953313567
0.6967938232
-0.006267754235
0.4978503166
0.7005962394
-0.02432723676
0.3741891075
0.6266867117
-0.08144243582
0.4453755421
-0.07118643574
0.3678641806
0.02576812251
0.519946291
0.3357600869
0.5864085048
0.4926600319
0.06632251795
0.6210453139
0.6612619947
0.0008950178292
0.5791823642
0.757093
-0.01463381213
0.4836052953
0.7555569392
-0.03329315888
0.3706574168
0.6658566206
-0.1075332
0.4586734378
-0.08801602067
0.4677356664
0.02492436458
0.5629625254
0.5746980752
-0.008662940897
0.5965130855
0.7444155815
-0.02087314187
0.5533513607
0.8186724549
-0.01995379022
0.4533780492
0.7981085591
-0.03227862535
0.3450070127
0.6646136091
-0.09756913257
0.408084758
-0.06307774399
0.4821169949
0.4128746536
-0.3202935742
0.5775591217
0.6889860662
-0.04001261142
0.5755695069
0.83541543
-0.01475335927
0.5189545122
0.8659103634
-0.01118680818
0.3884292334
0.7940900883
0.001048801257
0.5920895701
0.2044244224
0.3929516528
0.01992300014
0.4968835133
0.5352099744
0.04984423071
0.5583078517
0.7720064228
0.001984669352
0.5400761588
0.8896276212
-0.005485563767
0.464367238
0.8826394315
-0.01284042152
0.3755501386
0.7787790069
-0.09787233616
0.4984068793
-0.1228567394
0.4397479484
0.09546202568
0.4961004202
0.6487378899
0.0669160613
0.5286246794
0.8625804575
-0.005477095895
0.4916605345
0.9335303017
-0.01392672512
0.4035705519
0.894103983
-0.02723499336
0.3225939313
0.7206632583
-0.141279758
0.4264936497
-0.1038997177
0.4185145163
0.4863615796
-0.2561382087
0.5037056139
0.7964356297
-0.01904627038
0.4963627538
0.9493851872
-0.008512026526
0.442796242
0.9568262891
-0.009155795454
0.3279221146
0.8465628607
-0.01102547577
0.5992414621
0.1551743021
0.3931226494
0.09323892925
0.4304271748
0.6662008064
0.09293029493
0.466015166
0.9117854008
0.002011793081
0.4407420301
0.9871668123
-0.00506738917
0.3625254111
0.9354248627
-0.01064538457
0.3066491639
0.7605692861
-0.1054515781
0.4147191241
-0.1080699609
0.3592789706
0.5107631685
-0.203841337
0.4353585468
0.8355700756
0.0001357465172
0.4286269742
0.991536735
0.002361647426
0.3710767568
0.9899948955
0.00298018294
0.2629975164
0.8490501877
0.01959833703
0.5249252269
0.1527914129
0.3676974077
0.1430657579
0.3610838825
0.6915242235
0.1506593733
0.3870737117
0.9475148868
0.01803201663
0.3614718879
1.009477633
0.006119084449
0.2786456045
0.9136774276
0.01819904227
0.6381592889
0.1654115417
0.3033407945
0.5295169515
-0.1413335266
0.3587265894
0.8697651825
0.02236390679
0.3439677669
1.016025829
0.00821062446
0.2797509376
0.985519001
-0.007624745526
0.2692913779
0.7875330696
-0.1389142224
0.4192443398
-0.1499529626
0.3391159527
0.1904009963
0.2950277221
0.7167883985
0.1970650123
0.3099032363
0.9830031323
0.01814718094
0.2757652416
1.01758495
0.002072044865
0.1942631212
0.8557357465
0.01329944263
0.5096144245
0.103893036
0.2410117362
0.6351704761
-0.1593938152
0.2740158947
0.9620087995
-0.0120098267
0.2532464469
1.037884979
0.0004694182622
0.1800754883
0.9087984091
0.02010829541
0.5689951627
0.1206947498
0.2016317873
0.6089457527
-0.1754070647
0.2368273933
0.9555362875
-0.02872309449
0.2263237987
1.054975401
-0.006586828774
0.1732775804
0.9599232695
0.001921357282
0.6464006358
0.09587210706
0.1587707139
0.6039451493
-0.1537701109
0.1969483688
0.9564808489
-0.0391222165
0.1927024289
1.076484678
-0.01726333672
0.1613378106
1.021736204
-0.03044831648
0.2169231287
0.8043461202
-0.2135308027
0.4127778508
-0.1958547223
0.1271808836
0.6055655302
-0.1288012647
0.1621427851
0.9579508338
-0.03643188659
0.1626081597
1.091457287
-0.01543798411
0.1478450173
1.053123843
-0.01662449635
0.112102344
0.8626098124
-0.02252101884
0.5025497612
0.02233043364
0.1008898594
0.6041411941
-0.09946552339
0.1298730752
0.9569897232
-0.02802210515
0.1327287592
1.098165244
-0.009563640842
0.1223081676
1.070049434
-0.006504999212
0.09119852519
0.8907698655
0.002949589343
0.5353435687
0.05840471778
0.07813258318
0.6003471231
-0.07433851222
0.1004637014
0.9544875107
-0.0198289058
0.1032067378
1.10081276
-0.00539055282
0.09507633081
1.080167468
-0.001987627677
0.07215580925
0.9055078758
0.008182511402
0.5474901209
0.06000925704
0.05977128927
0.596015683
-0.05543984923
0.07553178944
0.9519410584
-0.0132140478
0.07753197834
1.101969683
-0.00315711109
0.07174389827
1.086600837
-0.0006452885629
0.05538384465
0.9145337128
0.007334216683
0.5558359029
0.04703806274
0.04672590678
0.5932282266
-0.04393845043
0.05902189003
0.9501897606
-0.01054468544
0.06020764324
1.102916475
-0.002132545766
0.05561602317
1.091109278
8.317905846e-05
0.04262374085
0.9207341966
0.006791798581
0.5610614718
0.037398172
0.03729968612
0.5905269433
-0.03459840295
0.04714976283
0.9484638924
-0.008124208454
0.04799886665
1.103584483
-0.001517110979
0.04442403057
1.09447601
0.0002081042561
0.03382902782
0.9254909057
0.00583829382
0.5653735349
0.02951696484
0.02961269027
0.5883339758
-0.02741972277
0.03746997453
0.9469955902
-0.006388982004
0.03822381395
1.103991248
-0.001160605014
0.03554854815
1.096960724
0.0001905516244
0.02708172176
0.9291701952
0.004787536906
0.5687026785
0.02375257826
0.02336857636
0.5866011956
-0.02163579626
0.02963224343
0.9458059012
-0.005073978103
0.03032186022
1.104209371
-0.0009077391767
0.02833835437
1.098757114
0.0001871160517
0.02164217845
0.931943102
0.003923269294
0.5712391756
0.01910568145
0.01845975296
0.5852149359
-0.01707349324
0.02346188556
0.944823424
-0.00401965528
0.0240743758
1.104298842
-0.0007019614422
0.0225809633
1.100066907
0.0001836196209
0.01727828416
0.9340425856
0.003203195611
0.5731876213
0.01532983854
0.01460377088
0.5841089668
-0.01349780171
0.01858719045
0.9440145018
-0.003174497362
0.01911404818
1.104311826
-0.0005398417879
0.01797910373
1.101034354
0.0001674980243
0.01378585265
0.9356393175
0.00259651932
0.5746886502
0.01228482387
0.0115368192
0.5832372067
-0.01066505903
0.01468228603
0.9433691831
-0.00250014799
0.01511853257
1.10428961
-0.0004140303335
0.01426108174
1.101746417
0.0001453873085
0.01097011789
0.9368402819
0.002089999576
0.5758397078
0.009819060325
0.009075054644
0.5825670486
-0.008404896483
0.01152285045
0.9428805511
-0.00195916377
0.01186512046
1.10426178
-0.0003144402015
0.01122881256
1.10226065
0.0001220750189
0.008681954269
0.9377185696
0.001668570682
0.5767069327
0.007814729536
0.007093633078
0.5820729885
-0.006599572901
0.008959695825
0.9425394043
-0.001524915799
0.009209526394
1.10424683
-0.0002348802762
0.008752287399
1.102618502
9.938733171e-05
0.006819914932
0.9383312401
0.00131970209
0.5773396414
0.006187206287
0.005514926564
0.5817249147
-0.005166852706
0.006910730131
0.9423243521
-0.001180751354
0.007078418042
1.104252672
-0.0001735293942
0.006762273369
1.102856243
7.84038274e-05
0.005323094951
0.9387344178
0.001036000859
0.5777846256
0.004878110888
0.004289782043
0.5814833733
-0.004048240553
0.005326215302
0.9422036868
-0.0009157677954
0.005370059615
1.104342132
-0.0001333044686
0.005229798758
1.102939136
5.736862229e-05
0.004158581717
0.9389926212
0.0008130138106
0.5780957272
0.003847480228
0.003370533271
0.5813052233
-0.003192383197
0.004165663051
0.9421263517
-0.0007177945775
0.004256123758
1.104356015
-0.0001043431847
0.004111720944
1.103041071
4.246706409e-05
0.003284344996
0.9391754119
0.0006445852837
0.5783255627
0.003054509641
0.002693345716
0.5811550481
-0.002543170457
0.003337818852
0.9420537104
-0.0005718317642
0.003417927974
1.104356587
-8.068111709e-05
0.003302801061
1.103118688
3.751012888e-05
0.002634959449
0.9393236896
0.0005195640533
0.5785126921
0.002447830122
0.00218104862
0.5810163688
-0.002042369252
0.002725885648
0.9419702642
-0.0004613907587
0.002802867115
1.104343753
-6.414767613e-05
0.002700067318
1.103187571
3.391693158e-05
0.002140084549
0.9394596113
0.000424061096
0.5786770306
0.001975746108
0.001773028577
0.5808875776
-0.001644237239
0.002238294247
0.9418785411
-0.0003735425391
0.002313000909
1.104320637
-5.159037353e-05
0.00221924773
1.103250806
3.051868177e-05
0.001744125667
0.9395873426
0.0003473908842
0.5788235202
0.001597636073
0.001435979513
0.5807726619
-0.001321063794
0.001828101332
0.9417877935
-0.0003013741552
0.001897048384
1.104293076
-4.138659241e-05
0.001814216145
1.10330676
2.687820777e-05
0.001415544983
0.9397027391
0.0002832747395
0.5789506006
0.001288464703
0.001155605782
0.5806747292
-0.001057673081
0.001479517517
0.9417056824
-0.00024180064
0.001539662474
1.104265932
-3.300090669e-05
0.001469438782
1.10335403
2.295370562e-05
0.001141144359
0.9398018123
0.0002292212489
0.5790569326
0.001034812348
0.000925021855
0.5805940025
-0.0008442951739
0.001188170397
0.9416356478
-0.0001931139163
0.001238562103
1.104241718
-2.617713441e-05
0.001180903956
1.103392585
1.910303347e-05
0.0009147941775
0.9398836311
0.0001842909882
0.5791434796
0.0008282472327
0.000738209534
0.5805286699
-0.0006728768767
0.0009499402914
0.9415777946
-0.0001538775421
0.0009912427806
1.104221144
-2.072876973e-05
0.0009447327845
1.103423465
1.563037903e-05
0.0007309607396
0.9399498127
0.0001475904373
0.57921288
0.0006615603622
0.0005888782351
0.5804760264
-0.0005362347232
0.0007590222462
0.9415303297
-0.0001226791434
0.0007926770824
1.10420398
-1.649117388e-05
0.0007552033014
1.103448283
1.265577746e-05
0.0005836674104
0.9400032986
0.0001180500468
0.5792684051
0.000528142298
0.0004716298076
0.5804329241
-0.0004285274993
0.0006101722534
0.9414901804
-9.839311524e-05
0.0006382078948
1.104189286
-1.33407424e-05
0.0006071611471
1.103469093
1.023679038e-05
0.000467744821
0.9400479787
9.473622101e-05
0.5793136183
0.0004225316095
0.0003838158234
0.5803951938
-0.0003460856314
0.0005021462351
0.9414523698
-8.051981947e-05
0.0005274693455
1.104175273
-1.131083542e-05
0.0004992880275
1.103488776
8.497937913e-06
0.0003805965705
0.9400894187
7.725139063e-05
0.5793529016
0.0003413132509
0.0003268760212
0.5803563692
-0.0002880514761
0.0004407993661
0.9414079531
-6.950674573e-05
0.0004680616589
1.104158626
-1.061536238e-05
0.0004371850455
1.103511872
7.780105159e-06
0.0003240786676
0.940136508
6.60170482e-05
0.579393246
0.0002837342083
0.0003063257098
0.5803063864
-0.0002563430085
0.0004359474573
0.9413446463
-6.631502993e-05
0.0004720677741
1.104134089
-1.158271649e-05
0.0004305475732
1.103544961
8.431073061e-06
0.0003030641499
0.9402019738
6.201757498e-05
0.5794450957
0.0002512144325
0.000324013554
0.580232899
-0.0002505261959
0.0004920861688
0.9412483343
-7.176066645e-05
0.0005454060305
1.104094907
-1.413883628e-05
0.0004840917366
1.103595817
1.045891994e-05
0.0003177511933
0.9403023484
6.596584949e-05
0.579519995
0.0002428518341
0.0003654797947
0.5801284931
-0.000261074056
0.0005931219731
0.9411047054
-8.401341193e-05
0.0006701005528
1.104036549
-1.862038947e-05
0.0005833343706
1.103669745
1.283818486e-05
0.0003611130329
0.9404497841
7.47855876e-05
0.5796274975
0.0002536104018
0.0004107744378
0.579995611
-0.0002778924795
0.0006879863547
0.940923617
-9.612358653e-05
0.0007868664819
1.103963521
-2.585172789e-05
0.0006770368246
1.103767507
1.206680714e-05
0.0004056463166
0.9406400681
8.110640077e-05
0.5797659508
0.000267193036
0.0004173620267
0.5798534603
-0.0002752113693
0.0007112128646
0.9407342581
-0.0001044920563
0.0008938770587
1.103818928
-3.807140803e-05
0.0007111170183
1.103950364
-9.675071836e-08
0.0004144208188
0.9408610532
7.571102068e-05
0.5799195773
0.0002607941928
0.0003677737406
0.5797302139
-0.0002445274292
0.0006233561664
0.9405832454
-0.0001045698016
0.0007305276677
1.103763314
-5.155800476e-05
0.0006351057043
1.104063185
-1.739943265e-05
0.0003645150348
0.9410777054
5.393843257e-05
0.5800623782
0.0002217141067
0.0002808760811
0.5796451766
-0.0001958388992
0.0004602813815
0.9405064301
-0.0001025900797
0.0005481564245
1.103742673
-6.723378243e-05
0.0004816283307
1.104172225
-4.251186915e-05
0.00027027103
0.9412714844
1.757817104e-05
0.5801752264
0.0001574227317
0.0001955316755
0.5796046251
-0.0001549803427
0.0002826957418
0.9405256538
-0.0001063878718
0.0003505844516
1.103773491
-9.870677565e-05
0.0003201872941
1.104285773
-8.31508445e-05
0.00016235049
0.941461168
-3.184692379e-05
0.5802547563
8.282051604e-05
0.0001454236887
0.5795824651
-0.0001232638239
0.0001294761376
0.9406727265
-0.000131125271
0.0001881513053
1.10387059
-0.0001557748755
0.0001962607941
1.104425302
-0.0001476381215
5.808578964e-05
0.9416912654
-9.192250068e-05
0.5802919548
2.088722369e-05
0.0001344254402
0.5796458176
-0.0001977780652
4.320199636e-06
0.9409846468
-0.0001818152167
7.997574293e-05
1.104058969
-0.0002640344906
0.0001490244685
1.104617215
-0.0002609616561
-2.993607165e-05
0.9420338706
-0.0001636448154
0.5803729496
-0.0001109310272
0.0003795477394
0.5795854756
-0.0003192060029
-0.0001429325278
0.941589304
-8.217724786e-05
1.722039212e-05
1.104261942
-0.0003631255452
0.0001744585522
1.104817194
-0.0003572179579
-0.0003399071693
0.9426265
-7.826382603e-05
0.5802985874
-0.0002655451547
-0.00102621428
0.5794984929
0.001113196603
-0.0008157843886
0.9408560337
0.000522840055
1.093675274e-05
1.103877481
-0.0004422614118
0.0008328440536
1.104425601
-0.0004303143984
0.001056466224
0.9418628717
0.0005400058585
0.5801901162
0.001164937208
0.0007225272758
0.5887925813
-0.01001661666
-0.0009119059476
0.9359368888
0.006553577667
0.0001092522189
1.102859467
-3.143892296e-06
0.001079290749
1.103426696
2.886630424e-05
-0.000598625689
0.9368950204
0.006645767424
0.5894752223
-0.009883731662
0.1318498424
-0.05675274609
0.2272477843
0.2864476997
-0.01099515708
1.07628263
0.002499257646
0.0004071206079
1.098791111
-0.00733392231
0.01170956211
1.099358692
-0.007234437883
-0.131530629
1.077362722
0.00277248948
-0.05650477362
0.2868633616
0.2275860051
-0.0006928283368
0.1353223673
-0.02677902128
0.2053181769
0.3963172664
0.3107482032
0.00655570443
0.04949275947
0.001061335232
0.2396149469
-0.03879600603
0.2567706482
0.3157417655
0.3237055926
0.003006786924
0.2570423819
-0.03843277144
0.2395959087
0.3236850416
0.3155226795
0.2050487382
-0.02528645944
0.1350349452
0.3099847051
0.396500103
0.007441368147
0.05164610894
0.0007157801299
0.1201613351
0.01444525148
-0.002981453304
-0.0003934505942
0.238424801
0.00456504951
-0.0007067960952
0.0004980624223
0.25475281
0.002498305366
0.002122718656
7.271077301e-05
0.1948857286
0.007967580132
0.5126974327
0.01761758746
0.06046985754
-0.1303932859
-0.1728695176
-0.2875220743
0.505461829
0.005606275178
0.001629328499
0.4996625379
0.003748986642
0.002050304527
0.4947480042
0.002730100712
0.00218443299
0.4932337136
0.0009952917747
0.0005189988659
0.4930298847
0.0003346841251
-0.000130855145
0.4929917539
0.0002646641914
-0.0002265334092
0.4929485799
0.0003133392273
-0.0002701652808
0.4928892629
0.0003880612444
-0.0003287442381
0.4928084553
0.0004880525163
-0.0004072449599
0.4927025674
0.0006150844106
-0.0005091965137
0.4925679887
0.0007730570343
-0.0006384783933
0.4923978718
0.0009702988865
-0.00080018199
0.4921831975
0.00121720178
-0.001002527576
0.4919125591
0.001526302185
-0.001255663805
0.4915716044
0.001913072938
-0.001572118293
0.4911422347
0.002396742759
-0.001967373143
0.4906016073
0.003001226962
-0.002460599702
0.4899208849
0.003756105326
-0.003075383011
0.4890636075
0.004697886842
-0.003840609591
0.4879835371
0.005871444187
-0.004791373898
0.4866217764
0.007331617939
-0.005969857387
0.4849029022
0.00914508263
-0.007426208554
0.482729705
0.01139300092
-0.009219803854
0.479975627
0.01417607839
-0.01142200063
0.476471523
0.01762523433
-0.01412113048
0.4719772074
0.02192303532
-0.01742872006
0.4660744116
0.02734812708
-0.02144533165
0.4579152157
0.03434215128
-0.0261829559
0.4443148894
0.04382768918
-0.03022736356
0.4268158763
0.05619012779
-0.03869111565
0.3613259642
0.07821490177
-0.0127249909
0.1982642585
0.1630617048
0.006748059161
0.1993773964
0.007360192481
0.01482920045
0.9721485663
0.1147822967
-0.004951729086
-0.2232712094
-0.2978950448
-0.2381013954
-0.2479099371
-0.01724336015
-0.05757396375
-0.01878509327
0.0112131097
0.008456487293
-0.0008687276997
0.9466846216
0.01948773837
0.0235937938
0.9285929727
0.01043298929
0.01326493468
0.9233335933
0.003421773077
0.005586592865
0.921947692
0.002373371933
0.001742630098
0.9211768918
0.001377455015
0.0003886369523
0.9207506354
0.0007368742141
2.406630103e-05
0.9204961007
0.0005570884735
-3.788958508e-05
0.9203396586
0.0005535934152
-8.381205388e-05
0.9202055848
0.0006539383632
-0.0001318033957
0.920059565
0.0008238176772
-0.000189745384
0.9198869018
0.001042361892
-0.0002546143276
0.9196737845
0.001315908267
-0.0003297339597
0.9194066415
0.001656571822
-0.000419129982
0.9190705208
0.002081656877
-0.0005283344677
0.9186468887
0.002613202933
-0.0006632687369
0.9181126206
0.003278135993
-0.0008307950042
0.9174386002
0.004110040104
-0.001039277029
0.9165880753
0.005150539203
-0.001298787453
0.9155143786
0.0064513045
-0.00162150258
0.9141582137
0.008076226583
-0.002022175008
0.9124438197
0.01010428892
-0.002518450813
0.910273754
0.01263272346
-0.003131040022
0.9075215376
0.01578085635
-0.00388355744
0.904021185
0.01969516072
-0.00480180737
0.8995523445
0.02455697572
-0.005912057017
0.8938189185
0.03059536493
-0.007236704856
0.8864107923
0.03811246094
-0.008781299644
0.8767274726
0.04752689098
-0.01049544456
0.8637715361
0.05944456182
-0.01214647467
0.8458532361
0.07487200447
-0.01312601599
0.8204685163
0.09390810726
-0.01233326059
0.7594116457
0.1232520455
0.0160197258
0.6383666319
0.1443477853
0.1749614857
0.5972292947
0.09987114833
-0.05873381211
0.473605309
0.2016109305