/*--------------------------------*- C++ -*----------------------------------*\
| =========                 |                                                 |
| \\      /  F ield         | OpenFOAM: The Open Source CFD Toolbox           |
|  \\    /   O peration     | Version:  4.1                                   |
|   \\  /    A nd           | Web:      www.OpenFOAM.org                      |
|    \\/     M anipulation  |                                                 |
\*---------------------------------------------------------------------------*/
FoamFile
{
    version     2.0;
    format      ascii;
    class       volVectorField;
    location    "1";
    object      U;
}
// * * * * * * * * * * * * * * * * * * * * * * * * * * * * * * * * * * * * * //

dimensions      [0 1 -1 0 0 0 0];

internalField   nonuniform List<vector> 
24850
(
(0.9865670031 0.05697042414 -0.01649579083)
(1.009354024 0.05122878968 -0.02613127322)
(1.015951367 0.01485876112 -0.009461553334)
(1.007337539 -0.0002371350549 0.001837816128)
(1.003957642 -0.001790037531 0.002274944332)
(1.002738498 -0.001089951086 0.0007863036841)
(1.002634477 -0.000275659365 0.0001215967411)
(1.00269855 0.0001822594978 -5.276642149e-05)
(1.002680322 0.0004120296204 -0.0001142214189)
(1.002597832 0.000584621079 -0.0001665134081)
(1.00248172 0.0007561524859 -0.0002196751358)
(1.002335875 0.000954472154 -0.0002790624235)
(1.002153548 0.0011985659 -0.0003515722906)
(1.001925851 0.001503900531 -0.0004420225741)
(1.001639834 0.001886904087 -0.0005548769829)
(1.001278793 0.002367391403 -0.000696040693)
(1.000822143 0.002970070839 -0.000872843948)
(1.00024389 0.003725479561 -0.001094184282)
(0.9995107929 0.004671492821 -0.001371144101)
(0.9985803784 0.005855569942 -0.001717541417)
(0.9973983058 0.007336867454 -0.002150504863)
(0.9958947648 0.00918878591 -0.002691300287)
(0.993979647 0.01150250788 -0.003366353009)
(0.9915358586 0.01439150789 -0.004208478091)
(0.9884098976 0.01799739395 -0.005258387509)
(0.9843962354 0.02249786107 -0.006567191333)
(0.9792236951 0.0281163472 -0.008194875716)
(0.9724210153 0.03512742586 -0.0102183513)
(0.9636151901 0.04392087415 -0.01256848576)
(0.9492760411 0.05484205362 -0.01543021116)
(0.9384236533 0.07000494675 -0.01432337032)
(0.9109119545 0.09249382824 -0.01676764795)
(0.9578142675 0.1097157308 -0.01747886914)
(0.8552284656 0.1184973428 -0.00348232049)
(0.9793021581 0.004776896725 0.004377191577)
(1.087898338 -0.004007275388 -0.02319609619)
(1.05678056 0.008840786809 0.03703880861)
(1.034024113 0.0001421182268 0.03561048554)
(1.016333395 -0.003943410059 0.01492067809)
(1.010945947 -0.001712823216 0.004231128472)
(1.006790294 -0.0004307719958 0.0006535750823)
(1.004617879 -8.676391049e-05 -2.639534181e-05)
(1.003821842 0.0001650085427 -3.929141854e-05)
(1.003404786 0.0003832547264 -2.329070178e-05)
(1.003164486 0.0005541107723 -3.383743154e-05)
(1.003018638 0.000732862879 -5.300960524e-05)
(1.002908518 0.000948468429 -7.565323043e-05)
(1.002801852 0.001203521308 -0.0001006992937)
(1.00268087 0.001516026776 -0.0001293963604)
(1.002536004 0.001905894551 -0.0001638330996)
(1.002356631 0.002394007884 -0.0002064840619)
(1.002130587 0.003005808576 -0.0002595907789)
(1.001843615 0.0037728776 -0.0003257254304)
(1.001477659 0.004734431731 -0.0004081964747)
(1.0010098 0.005939431281 -0.000511044893)
(1.00041062 0.007448777648 -0.0006393603929)
(0.9996416845 0.009338192211 -0.0007995326724)
(0.9986527663 0.01170190675 -0.0009994558284)
(0.997378173 0.01465710823 -0.001248936183)
(0.9957313796 0.01834956822 -0.001560246458)
(0.9935976232 0.02296094958 -0.001948595661)
(0.9908215693 0.02871863691 -0.002431741186)
(0.9871919217 0.0359107724 -0.003027147855)
(0.982370433 0.04489915635 -0.003750155856)
(0.9760037516 0.05624719901 -0.00451554356)
(0.966731707 0.07038655733 -0.005306914829)
(0.9568882689 0.09044192003 -0.004402275505)
(0.945032209 0.1124854431 -0.004098501404)
(0.9425621876 0.1412329095 0.001281666585)
(0.8972707987 0.1754804417 -0.00941423422)
(0.8914485115 0.2089731326 -0.02993227301)
(0.8800040398 0.2197945763 -0.02851168595)
(0.9216744467 0.2340462947 -0.01719343798)
(0.8297490208 0.2184376148 0.006871385214)
(0.9806740439 0.002333173533 0.003777089129)
(1.083226157 0.005499464302 -0.004109879554)
(1.053859583 0.01474537112 0.03043710135)
(1.012560434 0.01274884538 0.0288825626)
(1.007217493 0.007654040748 0.01295878459)
(1.00642848 0.003585564726 0.003837308895)
(1.004547544 0.001630740789 0.00111887241)
(1.003653604 0.0008655753356 0.0003994800403)
(1.003478434 0.0006268875416 0.000182449473)
(1.003351161 0.0005671776863 8.083108308e-05)
(1.003245821 0.0006145529435 2.921288696e-05)
(1.003170177 0.0007460897143 -2.089011016e-06)
(1.003115473 0.0009323522159 -2.244922338e-05)
(1.003064176 0.001168487701 -3.78148299e-05)
(1.003010142 0.001466035834 -5.222589213e-05)
(1.002947891 0.001840895879 -6.81352408e-05)
(1.002871443 0.002312248785 -8.675851377e-05)
(1.002774561 0.00290458651 -0.0001092132858)
(1.002649635 0.003648779804 -0.0001366942667)
(1.002487105 0.00458361526 -0.0001705752023)
(1.002274398 0.005757820635 -0.0002125588046)
(1.00199467 0.007232328739 -0.0002646251357)
(1.001625582 0.009083501933 -0.0003291328658)
(1.00113729 0.01140721426 -0.0004090201896)
(1.000489652 0.01432385925 -0.0005079953635)
(0.9996285382 0.01798490685 -0.0006307455724)
(0.9984807499 0.0225817153 -0.0007833468964)
(0.9969457098 0.02835758869 -0.0009733806954)
(0.9948856892 0.03562752759 -0.001207829349)
(0.9920866106 0.04480333694 -0.001492550186)
(0.9882921389 0.05650342308 -0.001785172305)
(0.9827580292 0.07138115179 -0.002067646838)
(0.9758720726 0.09157384605 -0.001811080097)
(0.968305881 0.115071693 -0.001419784332)
(0.9559279858 0.1486510389 0.0001301291849)
(0.9460231454 0.1715577648 -0.001321877797)
(0.9282812216 0.2104296978 -0.006313464715)
(0.916764018 0.2395630245 -0.006728286967)
(0.9067490086 0.2762024274 0.002292975854)
(0.8717614202 0.2989737442 0.001941204149)
(0.8275995841 0.3252015457 -0.02398754783)
(0.8673732725 0.3457786852 -0.02815447157)
(0.8014482926 0.3154481551 0.003695355438)
(0.9805889193 0.0007403373175 0.00406147403)
(1.082945702 -0.005303725671 -0.004064116822)
(1.053793423 -0.01439763524 0.03037783373)
(1.012667487 -0.01237461434 0.02883816024)
(1.00732432 -0.007278797464 0.01293846698)
(1.00650859 -0.003158402375 0.003831136022)
(1.004602519 -0.001116577898 0.00112592129)
(1.003706712 -0.0002393758963 0.0004190155441)
(1.003547504 0.0001416436906 0.000205049641)
(1.003445019 0.0003845424157 0.0001086104557)
(1.003372068 0.0005581959997 6.922239777e-05)
(1.00333762 0.0007302609447 5.419997163e-05)
(1.003329434 0.0009288117429 5.122528909e-05)
(1.003334678 0.001169881713 5.524587585e-05)
(1.003350488 0.001470186709 6.443604746e-05)
(1.003375905 0.001847267823 7.828310285e-05)
(1.003409722 0.002321659055 9.713634238e-05)
(1.003451409 0.00291841813 0.0001218297374)
(1.003500694 0.003668995674 0.0001535963658)
(1.003557071 0.004612989705 0.0001941391328)
(1.003619445 0.00580014666 0.0002457220618)
(1.003685667 0.007293156888 0.0003112659207)
(1.003751851 0.009170991785 0.0003944579241)
(1.003811412 0.01153308898 0.00049992716)
(1.003853923 0.01450486363 0.0006334273385)
(1.003863659 0.0182449228 0.0008019811594)
(1.003817928 0.02295489061 0.001014004943)
(1.003685993 0.02889321878 0.00127918913)
(1.003428315 0.03639871818 0.001607132203)
(1.003010497 0.04592176607 0.002002729464)
(1.00237796 0.05815448403 0.002440377151)
(1.001648774 0.07392050698 0.002856150356)
(1.000172258 0.09543679878 0.002783790049)
(0.9962992306 0.1220743538 0.002275098167)
(0.9883321144 0.1525983644 0.001743366455)
(0.9783426715 0.1837967496 0.002360347588)
(0.9643972952 0.2182285124 0.002943880218)
(0.9464161578 0.2500939187 0.0001105720374)
(0.9208020785 0.291674961 -0.0005787638966)
(0.902447206 0.3153644003 -0.001821329512)
(0.8680900981 0.3484340002 -0.01055553077)
(0.8641666707 0.3812247747 -0.006546744485)
(0.8104368921 0.3934641587 0.002917416886)
(0.8199756256 0.4331158536 -0.0148073081)
(0.7508985188 0.3974977837 -0.008656028554)
(0.9803444617 0.0008900013267 0.004505172104)
(1.087601913 0.004571702037 -0.02256122494)
(1.056749493 -0.008508034683 0.03719148813)
(1.033918784 0.0001612374589 0.03568780683)
(1.016304987 0.004302647878 0.01499855029)
(1.011013474 0.002121731129 0.004303534067)
(1.006945623 0.0009353258305 0.0007289278184)
(1.004827622 0.0007195663827 4.754006055e-05)
(1.004068491 0.0006197061702 4.034857962e-05)
(1.003720679 0.0006030932091 6.945751851e-05)
(1.003570456 0.0006649575245 7.630897862e-05)
(1.003514291 0.0007996233275 8.265477278e-05)
(1.003529519 0.0009892740503 9.53043072e-05)
(1.003583894 0.001232583045 0.0001141036565)
(1.003665491 0.001542751004 0.0001397929664)
(1.003774474 0.001935967982 0.0001737771394)
(1.003913729 0.002432720816 0.0002177535017)
(1.004088008 0.003059139438 0.0002739186279)
(1.004303933 0.003848554088 0.0003452333049)
(1.004569882 0.004843208984 0.0004355851681)
(1.004895927 0.006096485755 0.0005499725604)
(1.005293875 0.007675997996 0.0006947378483)
(1.005777386 0.009667342812 0.0008779226079)
(1.006362071 0.01217891552 0.001109686063)
(1.007065641 0.01534836597 0.001402749996)
(1.007908393 0.01935107274 0.001772885819)
(1.008914592 0.02441158057 0.002239343671)
(1.010117785 0.03081929455 0.00282496473)
(1.011569076 0.03895433716 0.00355264785)
(1.013402475 0.04931736382 0.004436253451)
(1.015753745 0.0626947792 0.00538400855)
(1.019619623 0.07998040488 0.006198800889)
(1.022844809 0.1046866472 0.005413432237)
(1.022430723 0.1366396966 0.003200926225)
(1.016702703 0.1721448456 0.0007072943164)
(1.006940592 0.2096990129 -0.0008714872769)
(0.9985270229 0.2440437449 -0.000904554893)
(0.9832466622 0.2938755085 -0.003748652167)
(0.9607854775 0.3129560866 -0.004754500747)
(0.9395008024 0.3375440687 -0.002331079896)
(0.9060286034 0.3708491497 -0.002463614286)
(0.8763117185 0.410474802 -0.0003959325611)
(0.8474948102 0.4229151447 -0.0009262429444)
(0.8030874793 0.4591534095 -0.01006483587)
(0.8169975986 0.4882377864 -0.009878118181)
(0.69279638 0.4617872544 -0.005414513219)
(0.9864652714 -0.0566348035 -0.01646634334)
(1.009467132 -0.05095062637 -0.02609007054)
(1.016160103 -0.01457134802 -0.009421243626)
(1.007553432 0.0006144356214 0.00193903962)
(1.004212801 0.002238363129 0.002403276632)
(1.003065902 0.001610543498 0.0009391527146)
(1.003051679 0.0009045989067 0.0003131345098)
(1.003224569 0.0006107560297 0.0001898931169)
(1.003336457 0.0005634139706 0.0001798560393)
(1.003434574 0.0006362873268 0.0001977295936)
(1.003537331 0.0007778926433 0.0002364052841)
(1.00366531 0.0009702361075 0.0002915743618)
(1.003827222 0.001217702363 0.0003633893251)
(1.004031095 0.001531299764 0.0004553000645)
(1.004286771 0.001927009665 0.0005720930101)
(1.004606305 0.00242590348 0.000720032283)
(1.005004708 0.003055066005 0.0009069460404)
(1.00550039 0.003848865063 0.00114294235)
(1.006116108 0.004850826793 0.00144116462)
(1.006879872 0.00611635641 0.001818114188)
(1.007825789 0.007716089312 0.002294594762)
(1.008995471 0.009740165167 0.002897256435)
(1.010440121 0.01230405366 0.003660086643)
(1.012223526 0.01555643678 0.004626250783)
(1.014426979 0.01969015947 0.005850616257)
(1.017161555 0.02495793014 0.007403533028)
(1.020581009 0.03169723142 0.009372464929)
(1.025016931 0.04036132795 0.01187308068)
(1.030793479 0.05162212775 0.01490415933)
(1.0409157 0.06629136403 0.01845708765)
(1.051422394 0.08700481698 0.01855697016)
(1.056041334 0.1144741136 0.01523749032)
(1.051556734 0.1472968443 0.01128140445)
(1.041188854 0.1802625527 0.0103691672)
(1.038657198 0.2121907657 0.002008658393)
(1.037844226 0.2713841108 0.01534004475)
(0.9809522129 0.3408832217 0.02298640963)
(0.9627374368 0.394205811 0.01144988005)
(0.9391319482 0.4061889431 0.004466807749)
(0.9114593333 0.431312996 -0.0001720848691)
(0.8777638835 0.4550645346 -0.001472611588)
(0.8328622505 0.4942031979 -0.003182893484)
(0.8098571932 0.5118089104 -0.007020831375)
(0.7457704238 0.5387548029 -0.004413382549)
(0.7496043629 0.5721476136 -0.02502493122)
(0.6765026308 0.5023102331 -0.0157771586)
(0.9555007354 0.3281919069 0.01266570475)
(0.982086519 0.3724975391 0.01553344756)
(0.9672273124 0.4311812167 0.01757228289)
(0.9360203552 0.4870400259 0.007068889376)
(0.9070408693 0.5050123714 0.002419643017)
(0.8721607365 0.5247519345 0.0003129544665)
(0.8280816911 0.5505727581 -0.00262778627)
(0.7805989334 0.5731544975 -0.002542027655)
(0.7373714962 0.5997202465 -0.0172492269)
(0.7528202141 0.6321572524 -0.01038294497)
(0.6135422432 0.5565928524 -0.009576637213)
(0.9545213854 0.4273448416 0.01356906541)
(0.9560633284 0.4636514665 0.0115349852)
(0.9254736785 0.5305442872 0.01297712021)
(0.8911028574 0.5903938598 0.003275476965)
(0.8568938305 0.6027811611 -0.001372715558)
(0.8164252157 0.6174659179 -0.0008269328482)
(0.7682928756 0.6479229364 -0.005738551454)
(0.7229837536 0.6603252322 -0.009765116059)
(0.7144811061 0.7011450684 -0.01212370266)
(0.5940430217 0.6223164112 -0.01805532515)
(0.9231039932 0.5314702128 0.007639009644)
(0.9073591897 0.555602842 0.005345126144)
(0.8909953619 0.6563365911 0.007046795665)
(0.8423445341 0.6764410187 0.00657764623)
(0.8018644302 0.691131953 0.002569589631)
(0.7479403202 0.7112077041 -0.005477949346)
(0.6960446673 0.7303881393 -0.01247921734)
(0.6928821373 0.7712769653 -0.01372075207)
(0.5817041452 0.6795412584 -0.01792669549)
(0.7898608035 0.6206453044 0.01665866465)
(0.8330542142 0.70783611 0.0099887549)
(0.8087496209 0.7689791384 -0.0003265538239)
(0.7753057079 0.7754737232 -0.004069718661)
(0.7261277997 0.7851476693 -0.007316499891)
(0.6772260415 0.7983839238 -0.01087906997)
(0.674996799 0.8348603363 -0.01070809155)
(0.5696824256 0.7314783952 -0.01637501704)
(0.843053412 0.699830619 0.008869137479)
(0.8219883412 0.7200189527 0.009814912232)
(0.7993715633 0.8239649624 -0.000575797423)
(0.7467762383 0.8512072399 -0.003143473003)
(0.7026632329 0.8598485702 -0.005634120494)
(0.6591715525 0.864341904 -0.006918835136)
(0.6549481759 0.8908382965 -0.006356805138)
(0.5593913174 0.7827862922 -0.01200757175)
(0.7357371025 0.7840222819 0.003796365487)
(0.7485146138 0.8712823651 -0.0005534062285)
(0.7077129472 0.9041487465 -0.0008345783893)
(0.6657497389 0.9185365372 -0.002963415632)
(0.6340354709 0.9205072826 -0.001842124963)
(0.6110346892 0.9173155571 0.002011321608)
(0.5376358729 0.8915098131 -0.0168708877)
(0.7655937388 0.9495869728 -0.0007182828328)
(0.7217548027 0.9587562551 -0.005645244385)
(0.6841222899 0.9627551067 -0.003266423075)
(0.629653953 0.9709455042 -0.002359189075)
(0.6252877903 0.9763542029 -0.001921795007)
(0.556617204 0.9497617664 -0.01122362861)
(0.661951654 0.9304189371 0.01565134041)
(0.708512531 1.032675222 0.0008559360387)
(0.6692950009 1.031007317 -0.001802195981)
(0.6342702834 1.018459578 -0.003398078727)
(0.5993162033 1.001626262 -0.006123639252)
(0.5859873263 1.029584556 0.003904186993)
(0.4992786196 0.8706136381 -0.003971460875)
(0.6539442447 0.9664240708 0.009658107091)
(0.6632217375 1.0357631 -0.002057855167)
(0.6211587014 1.050359857 -0.003943291258)
(0.5821901339 1.042362442 -0.00502735611)
(0.5546315465 1.032926627 0.006791403381)
(0.5343653395 1.006070835 0.0134963102)
(0.4618333263 0.9591822991 -0.0006825428994)
(0.66804066 1.110396258 -0.00293603105)
(0.6183481694 1.105047468 -0.006907943907)
(0.5848715541 1.090903864 -0.002882156253)
(0.5376205262 1.074966366 0.003178266884)
(0.5299900586 1.048415514 0.009620315942)
(0.4739851902 1.016812555 -0.0004894515336)
(0.5980193558 1.114690477 -0.004799043931)
(0.5771504715 1.128032478 -0.005977530737)
(0.5443460352 1.126821819 -0.00263730229)
(0.5134542074 1.106320168 -0.001574082307)
(0.4847914702 1.076671479 0.002647225136)
(0.4630995113 1.074447807 0.01942802583)
(0.3732690414 0.941331163 0.005066651413)
(0.5767354467 1.196519868 -0.002558835278)
(0.5320877347 1.170504506 -0.002859032985)
(0.504365231 1.143237567 -0.0002389548399)
(0.456127312 1.113535188 0.0006697565961)
(0.4427256691 1.090681096 0.01400329367)
(0.3844340689 1.068139866 -0.01134278246)
(0.5106949126 1.19055139 -0.01692108255)
(0.4830553967 1.181824856 -0.01384104174)
(0.4501957229 1.172164053 -0.002566760467)
(0.4229413942 1.148578604 -2.0863986e-05)
(0.4233711607 1.111657675 0.003759413398)
(0.3777033174 1.085865708 0.004683216995)
(0.4833304255 1.248135083 -0.01275735872)
(0.4372125959 1.208807405 -0.004578921932)
(0.4070576072 1.171922258 -0.0003336735276)
(0.3701994979 1.140867352 -7.312949455e-06)
(0.3519201749 1.117216113 0.03209029502)
(0.2760410851 0.9734269044 0.01462236437)
(0.4183724439 1.219515203 -0.02626407415)
(0.3885503316 1.214480238 -0.0198045843)
(0.360219018 1.197072629 -0.00260479226)
(0.3346343961 1.167317541 0.0008209507255)
(0.3336327179 1.124426154 0.02736716516)
(0.2730785957 1.083797949 0.000541809462)
(0.3751854544 1.249270913 -0.02132432867)
(0.3320071361 1.215684713 -0.007484071479)
(0.3044075722 1.18860872 0.002796444962)
(0.2961774567 1.152808062 0.01229616886)
(0.2472353244 1.128905672 -0.003765188662)
(0.3307497599 1.274557284 -0.02901863992)
(0.2888903384 1.239163711 -0.01183527196)
(0.2660492314 1.207736421 0.001205353913)
(0.2650532784 1.170774443 0.001653417262)
(0.2376827263 1.143817253 0.01226119066)
(0.247645904 1.281810656 -0.02134489781)
(0.2413011677 1.258042807 -0.0091018774)
(0.2246794805 1.220882151 -0.002335338158)
(0.2030002449 1.189334826 -0.0006831630781)
(0.2072783426 1.152581799 0.04178903957)
(0.1529039824 0.9875465939 0.022451536)
(0.1904656636 1.297027241 -0.01211216989)
(0.2004622048 1.267596797 -0.005285274405)
(0.1876175922 1.23266338 -0.003420289396)
(0.1670161425 1.20095165 9.105680865e-05)
(0.1848889773 1.161907213 0.04090963652)
(0.1417530497 1.117429248 0.01681512864)
(0.1486122828 1.307233399 -0.01160067324)
(0.1608176208 1.272841521 -0.005411113956)
(0.1499166541 1.24233891 -0.003521403096)
(0.1385941274 1.210377749 0.0009413783497)
(0.14758152 1.183241341 0.02232304318)
(0.1182700885 1.155215486 0.01706189299)
(0.1128792093 1.305703607 -0.01698200609)
(0.123684621 1.273259169 -0.008085941718)
(0.115366927 1.246646903 -0.003661330104)
(0.1088880349 1.218658941 0.001828785051)
(0.1129720421 1.195751692 0.009118211641)
(0.09556679961 1.170252592 0.01741415398)
(0.08353466799 1.293441957 -0.02085477528)
(0.09235043213 1.268195454 -0.009827148943)
(0.08607196457 1.247198944 -0.003553762542)
(0.08264920436 1.225639936 0.002408626702)
(0.08469431211 1.207262117 0.006154218294)
(0.07245289201 1.186650344 0.0172768126)
(0.06288077075 1.281076489 -0.01863505947)
(0.07221240231 1.262858789 -0.008751126332)
(0.06680126524 1.247102622 -0.003033136525)
(0.06439661593 1.231199771 0.002345919089)
(0.06592085777 1.217152997 0.006086922395)
(0.05475983612 1.201589535 0.01466477671)
(0.04928415836 1.273393312 -0.01468024057)
(0.0576711653 1.25952246 -0.006873457028)
(0.05312974464 1.247531947 -0.00241833547)
(0.05142208046 1.235516108 0.001928645001)
(0.05276424494 1.224516553 0.005458568363)
(0.04331937946 1.21217239 0.01180935078)
(0.03894239773 1.268459356 -0.0113957447)
(0.04579969735 1.257467315 -0.005325634563)
(0.04217982504 1.248069179 -0.001919755156)
(0.0410777167 1.238590035 0.001527738326)
(0.04235064262 1.229731126 0.004501326042)
(0.03477478646 1.219752123 0.009528368739)
(0.03060994271 1.264402328 -0.008894972166)
(0.0362193214 1.25577563 -0.004192208806)
(0.03339657294 1.248342578 -0.001531417654)
(0.03269262819 1.240762047 0.001229677924)
(0.03387622377 1.233658649 0.003624037123)
(0.02780770745 1.225677048 0.007668855237)
(0.02410285594 1.261002253 -0.006984052984)
(0.02869363537 1.254277195 -0.003314599545)
(0.02649977092 1.248421739 -0.001216015939)
(0.02603236451 1.242380365 0.0009950406224)
(0.0270793273 1.236731355 0.002902873776)
(0.02219695337 1.230335267 0.006151074561)
(0.01904938965 1.258293513 -0.005505160978)
(0.02277577407 1.253037458 -0.002618810483)
(0.02106846662 1.248422285 -0.0009630144019)
(0.02074999313 1.243608237 0.0007999082105)
(0.0216513715 1.23911623 0.002321818799)
(0.01772682447 1.233957515 0.004929770328)
(0.01508154971 1.256140824 -0.00434641942)
(0.01808974429 1.252029352 -0.002070576657)
(0.01675892544 1.248377625 -0.0007635411353)
(0.01653979539 1.244532727 0.0006396713686)
(0.01730622466 1.240954909 0.001856841064)
(0.01416054526 1.236780413 0.003948356212)
(0.01195175139 1.254405407 -0.00343373528)
(0.01437325403 1.251196676 -0.001638986998)
(0.01333414556 1.248301355 -0.0006062622545)
(0.01318082807 1.245229721 0.000510124373)
(0.0138257743 1.242379332 0.001485115029)
(0.01131151355 1.238994635 0.003158854595)
(0.009480974294 1.25300267 -0.002714254471)
(0.01142578167 1.250506999 -0.001298532031)
(0.01061128703 1.248209484 -0.0004816309949)
(0.01050201979 1.245757042 0.0004060191471)
(0.01104108772 1.243486648 0.001188221676)
(0.009035759408 1.24073616 0.002524627773)
(0.007527945777 1.251873161 -0.002146791009)
(0.009085297409 1.249938453 -0.001029564203)
(0.008447364117 1.248109514 -0.0003822097431)
(0.008366023885 1.246155212 0.0003232801542)
(0.008812073012 1.244349273 0.0009512502475)
(0.0072188189 1.24210482 0.002016074393)
(0.005978619464 1.250965881 -0.00169876406)
(0.007221875013 1.249472964 -0.0008160387567)
(0.006717934843 1.24802105 -0.0002993266007)
(0.006665915112 1.246455607 0.0002610487367)
(0.007037694357 1.245020423 0.000762977095)
(0.005766949408 1.243180307 0.001609868166)
(0.004748901234 1.250239929 -0.001345055405)
(0.005734814128 1.249096137 -0.0006461469111)
(0.005340343414 1.247943528 -0.0002311735833)
(0.005317369337 1.246696936 0.0002144974133)
(0.005621353708 1.245546698 0.0006124665689)
(0.004605117025 1.244027806 0.001286072491)
(0.003772927695 1.249658788 -0.001066492882)
(0.004558476149 1.248792567 -0.0005122171292)
(0.004249256437 1.24788062 -0.0001798742102)
(0.004237259926 1.246882884 0.0001747005333)
(0.004484610242 1.245962015 0.0004904180117)
(0.003673419489 1.244698582 0.001027424026)
(0.00299681976 1.249190256 -0.0008469858059)
(0.003626264005 1.248545089 -0.0004061636708)
(0.003384116985 1.247823235 -0.0001422189984)
(0.003375418617 1.247025059 0.0001399115299)
(0.003574602958 1.246287675 0.0003914329409)
(0.002927360771 1.245230481 0.0008207193225)
(0.002379899049 1.248811014 -0.0006734343601)
(0.002885393193 1.248342802 -0.0003218490573)
(0.00269591039 1.247770428 -0.0001134638056)
(0.002689154809 1.247133212 0.0001111701098)
(0.002848636936 1.246542877 0.0003117774114)
(0.002331679035 1.245653269 0.00065554835)
(0.001890429116 1.248504606 -0.0005357772373)
(0.002296201242 1.248178299 -0.0002550031833)
(0.002147616622 1.247724463 -9.0713645e-05)
(0.002142343867 1.247216605 8.827911332e-05)
(0.002269954764 1.246743959 0.000248056022)
(0.001857007001 1.245989831 0.0005234791173)
(0.001502339465 1.248258123 -0.0004263742726)
(0.001827458591 1.248045065 -0.0002021741769)
(0.001710585274 1.247685797 -7.24826637e-05)
(0.001706497259 1.24728151 7.017919183e-05)
(0.00180864832 1.246902835 0.0001972976437)
(0.001479106548 1.246257351 0.0004178548569)
(0.001194433506 1.248060738 -0.0003393542087)
(0.001454366584 1.247937545 -0.0001604437933)
(0.001362203469 1.247653732 -5.783800869e-05)
(0.001359117959 1.247332102 5.5853892e-05)
(0.001440921457 1.247028341 0.000156972371)
(0.001178254701 1.246469441 0.0003334158117)
(0.0009498971746 1.247903193 -0.0002701248895)
(0.001157385997 1.247851145 -0.0001274522019)
(0.001084554892 1.247627468 -4.611175931e-05)
(0.001082279657 1.247371594 4.447481148e-05)
(0.001147775688 1.247127461 0.0001249454021)
(0.000938615461 1.246637299 0.0002659420102)
(0.0007554939063 1.247777704 -0.0002150342515)
(0.0009210457231 1.247781989 -0.0001013621127)
(0.000863352444 1.247606211 -3.679597666e-05)
(0.0008616559563 1.24740255 3.536802138e-05)
(0.0009140271737 1.247205786 9.946288349e-05)
(0.0007475907538 1.246770065 0.0002120514923)
(0.0006008205959 1.247677971 -0.0001712720477)
(0.0007330023705 1.247726849 -8.072551871e-05)
(0.0006871943354 1.247589267 -2.950343914e-05)
(0.0006858192332 1.24742698 2.799271002e-05)
(0.0007275353392 1.247267761 7.912653208e-05)
(0.0005952153543 1.246875011 0.0001690692807)
(0.0004776605901 1.247599156 -0.0001366833931)
(0.0005833436563 1.247683091 -6.445050314e-05)
(0.0005468803248 1.247576069 -2.397815601e-05)
(0.0005455539901 1.247446516 2.187102141e-05)
(0.0005784245641 1.247316974 6.281356859e-05)
(0.0004733668893 1.24695789 0.0001348918619)
(0.0003787563932 1.247536956 -0.0001095960845)
(0.0004646197281 1.247648756 -5.178580505e-05)
(0.000435745604 1.247566276 -2.01292903e-05)
(0.0004337376427 1.247462421 1.654797378e-05)
(0.0004590966878 1.24735608 4.9634375e-05)
(0.0003758675788 1.247022982 0.0001079702739)
(0.0003002654897 1.247489566 -8.908668628e-05)
(0.000369889202 1.247621877 -4.202032926e-05)
(0.0003465979129 1.247559275 -1.802679744e-05)
(0.0003440712953 1.247475701 1.146942837e-05)
(0.0003622468687 1.24738737 3.876285497e-05)
(0.0002971280431 1.247074615 8.686295018e-05)
(0.0002336230964 1.247450949 -7.436979865e-05)
(0.0002955657632 1.247602588 -3.503437363e-05)
(0.0002796861993 1.247554667 -1.747562657e-05)
(0.00027291929 1.24748659 6.060663686e-06)
(0.0002850174153 1.247412142 3.029492039e-05)
(0.0002334863647 1.247116705 6.946985559e-05)
(0.000182512401 1.247422322 -6.532102047e-05)
(0.0002370141101 1.247589645 -3.085778578e-05)
(0.0002242695905 1.247550586 -1.830830126e-05)
(0.000215450468 1.247495946 2.567461418e-07)
(0.0002231633168 1.24743325 2.285653377e-05)
(0.0001845704197 1.247150374 5.514869128e-05)
(0.0001417382689 1.247400859 -5.884340797e-05)
(0.0001918911381 1.247581481 -2.935912023e-05)
(0.0001794423236 1.247547477 -1.993898561e-05)
(0.0001701339057 1.247500825 -5.425202121e-06)
(0.000173978324 1.247453521 1.576242093e-05)
(0.0001471766995 1.247180232 4.334205936e-05)
(0.0001048661393 1.247382767 -5.379085533e-05)
(0.0001455522049 1.247577652 -2.95737295e-05)
(0.0001416042245 1.247546972 -1.981961034e-05)
(0.0001415710907 1.247515156 -8.023314422e-06)
(0.0001401981078 1.247476132 1.024893204e-05)
(0.0001202378463 1.247210518 3.305679418e-05)
(7.514764316e-05 1.247371937 -4.977722698e-05)
(0.0001151137426 1.247588546 -3.022607406e-05)
(0.0001057969728 1.247568917 -2.003949667e-05)
(0.0001209543343 1.247540053 -1.106453001e-05)
(0.0001139281777 1.247513573 4.058144426e-06)
(9.99672887e-05 1.24724474 2.235537248e-05)
(5.815135318e-05 1.247368375 -4.868517623e-05)
(9.235935751e-05 1.247624632 -3.147616296e-05)
(7.489705501e-05 1.24759931 -2.805311437e-05)
(0.0001065625241 1.247581746 -2.15289825e-05)
(8.921225197e-05 1.247570024 -5.473382245e-06)
(8.154161075e-05 1.247280369 1.09702783e-05)
(6.467317786e-05 1.24738183 -5.202446192e-05)
(7.883490701e-05 1.247707073 -3.665463473e-05)
(3.776357263e-05 1.247639808 -4.77355917e-05)
(0.0001053550325 1.24763286 -4.217999667e-05)
(6.380124275e-05 1.247662072 -1.825907132e-05)
(5.801826304e-05 1.247314533 -3.88033254e-06)
(0.0001092097281 1.247427454 -5.174875639e-05)
(7.351729735e-05 1.247873653 -4.548964747e-05)
(-3.083880333e-05 1.247705001 -8.329338062e-05)
(0.000141516955 1.247706966 -7.826697964e-05)
(3.643689626e-05 1.247833396 -3.254318177e-05)
(-4.227385585e-06 1.247378344 -1.500507691e-05)
(0.0002148615104 1.247387558 -0.0001303881401)
(5.527552814e-05 1.248204603 -8.035079077e-05)
(-0.0001773910682 1.24779202 -0.0001706254375)
(0.0002629930702 1.247794115 -0.0001662833321)
(2.488698813e-05 1.248173164 -7.083766712e-05)
(-0.0001150927519 1.247351876 -0.0001056931679)
(0.0008573766059 1.248400924 -0.0004601644048)
(3.571261582e-05 1.248853755 -0.0001122736788)
(-0.0004386565465 1.248113849 -0.0003433134497)
(0.0005039013707 1.248108778 -0.0003366970116)
(2.334647347e-05 1.248830911 -0.0001099012096)
(-0.0007663251528 1.248367587 -0.0004464308591)
(-0.001096326093 1.247619993 0.0007864271899)
(-0.0001110964436 1.250301217 -0.0004274530592)
(-0.001501041192 1.247762663 -0.0009681651743)
(0.001545862074 1.247751944 -0.0009617913853)
(0.000151843795 1.250265679 -0.0004254738287)
(0.001170544465 1.247580422 0.0007949661892)
(0.01441142705 1.258813844 -0.01933690354)
(-0.002312063587 1.251689085 0.0009526350644)
(-0.0004311966786 1.250953569 -0.001899652025)
(0.0004429556514 1.25093202 -0.001895190794)
(0.0023324663 1.251665908 0.0009747715702)
(-0.01431406615 1.2587659 -0.01934739677)
(-0.04237689356 1.275089396 -0.01878288546)
(-0.01314081232 1.26030775 -0.02103450826)
(-0.008222167872 1.240644025 -0.003219434797)
(0.008203817554 1.240625056 -0.003222388209)
(0.0131081782 1.260092421 -0.02100857172)
(0.04240746464 1.27490923 -0.01880659872)
(-0.001413369528 1.259654663 -0.04516453889)
(-0.01386344068 1.258359347 -0.0357876018)
(0.01363418645 1.258293512 -0.03580906389)
(0.00145688672 1.259445055 -0.045030792)
(-0.02367765013 1.222524121 -0.01968231291)
(-0.01559584679 1.215783185 -0.03327038801)
(-0.0002537739609 1.218060449 -0.03337121094)
(-0.003548628753 1.216181057 -0.03722179441)
(1.038016019 0.01074694615 -0.01249035657)
(1.045797119 0.008892302953 -0.01277226499)
(1.019835279 0.006754784219 -0.001190078568)
(1.007993132 0.003591606969 0.002341713383)
(1.003831382 0.0009259087144 0.0009606447664)
(1.002595321 0.0001706647146 7.776221898e-05)
(1.002518371 0.0002185265698 -9.627247718e-05)
(1.002491835 0.0003203574878 -0.0001615241623)
(1.002398921 0.0004038346835 -0.0002139934565)
(1.002257145 0.0004961329635 -0.0002747289237)
(1.002071217 0.0006153101734 -0.0003493760618)
(1.001830262 0.0007663337262 -0.000441357539)
(1.001522872 0.0009568871629 -0.0005552176604)
(1.00113438 0.001197397516 -0.0006972098207)
(1.000644418 0.001499681184 -0.0008745742633)
(1.000026874 0.001878462908 -0.001096052642)
(0.9992490699 0.002352505886 -0.001372555776)
(0.9982698577 0.002945105206 -0.001717646011)
(0.9970373155 0.003685046671 -0.002148037808)
(0.9954860028 0.004607949148 -0.002684286793)
(0.9935334362 0.005757723445 -0.003351624836)
(0.9910754479 0.007188318099 -0.00418094271)
(0.9879800545 0.008965870146 -0.005209895677)
(0.9840790366 0.01117133113 -0.006484045916)
(0.9791559151 0.0139037498 -0.008057988333)