/*--------------------------------*- C++ -*----------------------------------*\
| =========                 |                                                 |
| \\      /  F ield         | OpenFOAM: The Open Source CFD Toolbox           |
|  \\    /   O peration     | Version:  4.1                                   |
|   \\  /    A nd           | Web:      www.OpenFOAM.org                      |
|    \\/     M anipulation  |                                                 |
\*---------------------------------------------------------------------------*/
FoamFile
{
    version     2.0;
    format      ascii;
    class       volScalarField;
    location    "4";
    object      p;
}
// * * * * * * * * * * * * * * * * * * * * * * * * * * * * * * * * * * * * * //

dimensions      [0 2 -2 0 0 0 0];

internalField   nonuniform List<scalar> 
24850
(
-0.2388255078
-0.2634289786
-0.2591481511
-0.2522726468
-0.2530882726
-0.2530940375
-0.2528581688
-0.2527141938
-0.2526100084
-0.252521108
-0.2523907675
-0.2522677873
-0.2520980269
-0.2518888712
-0.2516260824
-0.251290281
-0.2508646172
-0.2503241593
-0.2496369707
-0.2487640806
-0.2476559603
-0.2462494348
-0.2444641661
-0.2421977262
-0.2393176586
-0.2356538353
-0.2309674366
-0.2249688654
-0.2169858328
-0.2066023771
-0.190485474
-0.1811067892
-0.1736822971
-0.1701528128
-0.2456730156
-0.2472165613
-0.2510887672
-0.2558723941
-0.2543837903
-0.252134633
-0.2527199524
-0.2528503246
-0.2528434526
-0.2528585385
-0.2527870876
-0.2526948021
-0.2525894918
-0.2525028965
-0.2524125345
-0.2523023984
-0.2521540511
-0.2519560829
-0.2517002188
-0.2513705659
-0.2509457747
-0.250399598
-0.2496980198
-0.2487968519
-0.2476390853
-0.2461510656
-0.2442364323
-0.2417693782
-0.2385740401
-0.2344191356
-0.2288971802
-0.2216335325
-0.2120051832
-0.2042351904
-0.1953851487
-0.18604749
-0.1702804233
-0.1710892231
-0.1609348639
-0.1618360419
-0.2486703127
-0.2481850867
-0.2510071211
-0.2537205322
-0.2542553849
-0.2532105949
-0.2529198356
-0.2528251819
-0.2528774405
-0.2529964043
-0.2529444569
-0.2528762183
-0.2528175094
-0.2527664704
-0.2527292415
-0.2526913594
-0.2526333332
-0.2525538109
-0.2524489034
-0.2523088536
-0.2521220539
-0.2518744027
-0.2515469719
-0.251114664
-0.2505446801
-0.2497942034
-0.2488070549
-0.2475098938
-0.2458022449
-0.2435485421
-0.240559297
-0.2366577237
-0.2314250359
-0.2259145891
-0.2199193154
-0.213247325
-0.2074646838
-0.2006997765
-0.1895782373
-0.1795752835
-0.1612621293
-0.1582910719
-0.1569931429
-0.2484869481
-0.2482749275
-0.2510689093
-0.2537706753
-0.2543080646
-0.2532636772
-0.2529792539
-0.2528963159
-0.2529687332
-0.2531116446
-0.253082646
-0.2530391081
-0.2530192319
-0.2530315885
-0.2530710385
-0.2531212079
-0.2531722312
-0.2532297893
-0.2532974093
-0.2533739775
-0.2534591212
-0.2535528853
-0.2536540375
-0.2537597985
-0.2538656423
-0.2539648134
-0.2540483342
-0.254106127
-0.2541323608
-0.254135507
-0.2541746784
-0.2543396196
-0.2547970525
-0.254145175
-0.2510572165
-0.2442498572
-0.2393998245
-0.2333672228
-0.2228027088
-0.2088959744
-0.1994512427
-0.1859706062
-0.1747379132
-0.152196273
-0.1592404062
-0.2479316419
-0.2472935251
-0.251131082
-0.2559489345
-0.2544844998
-0.252274732
-0.2528838677
-0.2530466556
-0.253091724
-0.2531656371
-0.2531786771
-0.2531803833
-0.2532002799
-0.2532616219
-0.2533587856
-0.2534947865
-0.2536508089
-0.2538345952
-0.25405902
-0.2543325372
-0.254665453
-0.2550712936
-0.255565951
-0.2561683993
-0.2569020106
-0.2577961689
-0.2588897735
-0.260237453
-0.2619296843
-0.2641208347
-0.2671584404
-0.2715212227
-0.278051068
-0.2820054267
-0.2809276047
-0.2756652585
-0.2711852397
-0.2670301439
-0.2576281022
-0.2428182928
-0.2314438099
-0.2164688079
-0.2036524929
-0.190849526
-0.1805404645
-0.1601726503
-0.2389118321
-0.2635554933
-0.2593668868
-0.2525010814
-0.253355879
-0.2534332041
-0.2532679013
-0.2532218778
-0.2532712967
-0.2533526117
-0.2534259556
-0.2535705289
-0.2537421997
-0.2539527068
-0.2542109325
-0.2545338854
-0.2549365691
-0.2554360462
-0.2560551545
-0.2568229198
-0.2577752922
-0.2589571974
-0.2604255371
-0.2622534136
-0.264537787
-0.2674109277
-0.2710732073
-0.2758360817
-0.2823920842
-0.2920048256
-0.3081327606
-0.320714622
-0.323616698
-0.3185234295
-0.3187910621
-0.3228362916
-0.2964121556
-0.2816107104
-0.2681799633
-0.2544518404
-0.2344725413
-0.2211965063
-0.2060533811
-0.1867447455
-0.174241041
-0.1789083789
-0.3260903661
-0.3410443106
-0.309249143
-0.292870382
-0.271083698
-0.2566516407
-0.2370257925
-0.217800869
-0.2108262206
-0.195230826
-0.1839060095
-0.331611527
-0.3514989589
-0.3105537886
-0.2927880189
-0.2709037309
-0.2519331007
-0.2360994182
-0.2237089279
-0.2090638335
-0.2076130242
-0.3364460646
-0.3470363611
-0.3068646929
-0.2851865408
-0.2671191019
-0.2482785219
-0.2332717878
-0.2263302438
-0.2282899978
-0.330839878
-0.3150548257
-0.2956142202
-0.2726716424
-0.25396219
-0.2370478534
-0.236060666
-0.2369534831
-0.3391583435
-0.3303336859
-0.2918180291
-0.2703496999
-0.2474488768
-0.2278732879
-0.2280390613
-0.2227385476
-0.3023937958
-0.2828236715
-0.2513913671
-0.2174636995
-0.1953404285
-0.1805237151
-0.1669481553
-0.2807568846
-0.2477009383
-0.2111491864
-0.1696275859
-0.1425731749
-0.1154976519
-0.2954445583
-0.2417483904
-0.1988609588
-0.1486503011
-0.09723186679
-0.04992747611
0.000672387841
-0.2311645113
-0.1908683321
-0.1352658376
-0.07139209612
-0.01884606621
0.03644740923
0.0804220739
-0.1742585889
-0.1280788952
-0.07162918996
-0.01435890178
0.03324061912
0.07685722562
-0.2143206267
-0.1420722167
-0.08228288012
-0.01484390472
0.04519168754
0.1053277328
0.1538087124
-0.1288833994
-0.08242763837
-0.02371877403
0.03343352851
0.08083698523
0.1236203964
-0.1894853808
-0.1037082031
-0.04173338824
0.01961032386
0.07507089722
0.1218424145
-0.09716321837
-0.05150180013
0.006283162909
0.06495278419
0.129657071
0.1707556292
-0.1548433321
-0.06829793405
-0.0055793909
0.04847971246
0.09266401995
0.1356581162
-0.07546830916
-0.02542355009
0.03425607716
0.08305432493
0.1271832962
-0.122637553
-0.04244539939
0.01811531852
0.06783469259
0.1116648268
-0.1204867643
-0.04378048608
0.009293571626
0.05995665403
0.1213726915
0.1572484694
-0.1166917779
-0.04459692526
0.002445405611
0.04671224552
0.08832866217
0.1240374528
-0.117586365
-0.04836447713
-0.006366723311
0.03396426358
0.07050778203
0.1090184658
-0.1070580235
-0.04618160846
-0.01036201765
0.0269779164
0.05944523305
0.09326582076
-0.0836767507
-0.03725699133
-0.009621710063
0.02202139786
0.04784440033
0.07711982025
-0.05615499619
-0.02579991612
-0.006928173442
0.01637904406
0.03442190594
0.05538383658
-0.04106762298
-0.01962992386
-0.005723057264
0.01157932601
0.02484153176
0.04071116824
-0.03367013421
-0.01724980363
-0.00575134789
0.007690635523
0.01856937684
0.0313598682
-0.02832036434
-0.01542280088
-0.0058951789
0.004650659958
0.01374316145
0.02418337613
-0.02350790679
-0.01343738993
-0.005815581159
0.002411546488
0.009762978404
0.01814832542
-0.01952236706
-0.01171251011
-0.005668668051
0.0007951904591
0.006641544375
0.01337064038
-0.01647387643
-0.01038269899
-0.005559172473
-0.0004309678309
0.004240716004
0.009637822496
-0.01412217173
-0.009325940358
-0.005471099162
-0.001379920616
0.002367483727
0.006690696728
-0.01223607255
-0.008441040704
-0.005362429796
-0.002099382519
0.0009007088191
0.004364784537
-0.01070979557
-0.007701657663
-0.005244074178
-0.002645881403
-0.0002492343154
0.002524883284
-0.009485819543
-0.007098737488
-0.005129223249
-0.003064128643
-0.001154833822
0.001065226601
-0.008510136416
-0.006616003659
-0.005042237064
-0.00339643435
-0.001872787679
-9.406465505e-05
-0.007732967952
-0.006230127321
-0.004981725042
-0.003670215184
-0.002445635052
-0.001018656102
-0.00711163046
-0.005917927098
-0.004927329705
-0.003882835253
-0.002899750681
-0.001757169887
-0.006614043583
-0.005665161467
-0.004876627722
-0.004044799547
-0.003258894571
-0.002346527974
-0.006217138394
-0.005463052629
-0.004834257148
-0.004171737408
-0.003544922845
-0.002817279961
-0.005902503573
-0.005303482184
-0.004801841628
-0.004274268954
-0.0037744752
-0.003194199743
-0.005654298794
-0.005178402942
-0.004778170362
-0.004358175351
-0.003959520151
-0.003496721667
-0.00545938897
-0.005081195382
-0.004761777064
-0.004427402684
-0.004109306937
-0.003740135337
-0.00530709377
-0.005006352548
-0.004751622973
-0.004485368597
-0.004231435521
-0.003936930167
-0.005189322288
-0.0049502223
-0.00474691124
-0.004534679984
-0.004331765228
-0.004096658379
-0.005099177207
-0.004908809878
-0.004747052884
-0.00457781986
-0.004415212178
-0.00422731337
-0.005031799141
-0.004880044371
-0.004751257625
-0.004616036526
-0.00448520324
-0.004334848935
-0.004982497837
-0.004861262047
-0.004759295617
-0.004651078553
-0.004545114145
-0.004424127761
-0.004948648868
-0.00485019016
-0.004769562423
-0.004683201072
-0.004597328295
-0.00450041323
-0.004925730025
-0.004845745247
-0.004782077216
-0.004712895342
-0.004644207361
-0.004566735121
-0.004914971122
-0.004848237729
-0.004794039902
-0.004739040085
-0.00468759817
-0.004628680946
-0.004913670767
-0.004857576769
-0.004806849031
-0.00476109434
-0.004731272121
-0.0046886734
-0.004926960125
-0.004880763884
-0.004834558591
-0.004800701955
-0.004784322603
-0.004755083105
-0.004960976802
-0.004921172334
-0.004885501169
-0.004860956606
-0.004848665058
-0.004832902768
-0.005029800893
-0.004982004052
-0.00494892608
-0.004930433818
-0.004927883947
-0.004933690712
-0.005155439001
-0.005071233716
-0.005023648217
-0.005009241143
-0.00503142314
-0.005078442691
-0.005438974692
-0.00522387026
-0.00513102501
-0.005117863363
-0.00519745257
-0.005378406384
-0.005954773721
-0.005412535393
-0.005250160165
-0.00522883407
-0.005388760075
-0.005912851726
-0.007561682411
-0.005701239137
-0.005431509229
-0.005412265457
-0.005683119314
-0.007539987956
-0.008897356411
-0.005206749306
-0.005463290302
-0.005440125948
-0.00517780589
-0.008872040137
-0.01613541716
-0.003094635048
-0.005076761631
-0.005064856456
-0.003074013408
-0.01607742108
0.001243356753
-0.002713746638
-0.002724564628
0.001185295862
0.006170773839
0.002068420423
0.003026117869
0.002944925035
-0.2436740733
-0.2585971564
-0.2574401534
-0.2537457823
-0.2524096078
-0.2528323385
-0.2525902843
-0.2524724455
-0.2523912534
-0.2522505537
-0.2520161189
-0.251745082
-0.2514567036
-0.2510949653
-0.2506318807
-0.2500481603
-0.2493136909
-0.2483880335
-0.2472219974
-0.245754904
-0.2439106155
-0.2415938068
-0.2386852057
-0.2350349006
-0.2304533489
-0.2246935351
-0.2174390788
-0.2081649826
-0.1962865736
-0.1795848747
-0.1591058324
-0.1467995035
-0.1322159592
-0.2483063309
-0.2487555855
-0.2497612088
-0.2550573361
-0.2557284724
-0.2534665227
-0.2527611198
-0.2528914483
-0.2525594623
-0.2525648778
-0.2524833803
-0.2523276974
-0.252139754
-0.2519314225
-0.2517012266
-0.2514082548
-0.2510286931
-0.2505457613
-0.2499353598
-0.2491635257
-0.2481880279
-0.2469566008
-0.2454032871
-0.2434448769
-0.2409765601
-0.2378657
-0.233943338
-0.2289889128
-0.2227139542
-0.2146933104
-0.2043972319
-0.1909278346
-0.1743784854
-0.161423019
-0.1438843701
-0.1259639415
-0.1355807602
-0.1205355249
-0.1126493581
-0.1013071133
-0.2482378268
-0.2474102128
-0.2491992301
-0.2551973635
-0.2547423236
-0.2530687222
-0.2522081213
-0.2526404125
-0.2525236567
-0.2526452348
-0.2526235251
-0.2524786934
-0.2523282613
-0.2521731539
-0.2519706731
-0.251718378
-0.2514069444
-0.2510149524
-0.2505201675
-0.2498938616
-0.2491002841
-0.2480956523
-0.2468246812
-0.2452173832
-0.2431853902
-0.2406168132
-0.2373687327
-0.2332572605
-0.2280372409
-0.2213949744
-0.2129093805
-0.2024300941
-0.1896861155
-0.1791593191
-0.1697084393
-0.1598941158
-0.1499108487
-0.1409489042
-0.1331889336
-0.1219876868
-0.1130336558
-0.1111411725
-0.09485829305
-0.2483748607
-0.248506932
-0.2514263741
-0.2541798398
-0.2533629622
-0.2523822396
-0.2529732188
-0.2530184519
-0.252843254
-0.2525775045
-0.2525603097
-0.2525869749
-0.252525712
-0.2524242706
-0.2523051084
-0.2521679941
-0.2519879669
-0.2517491471
-0.2514420675
-0.2510489135
-0.2505456365
-0.2499026803
-0.2490821452
-0.2480354071
-0.2467005377
-0.2449986146
-0.2428286448
-0.2400618889
-0.2365353368
-0.2320624165
-0.2264412204
-0.2196266579
-0.2116712982
-0.2037549949
-0.1950540789
-0.1829153451
-0.1717550648
-0.1659630431
-0.1584292303
-0.1465010532
-0.1356756573
-0.1288755556
-0.1146025057
-0.1100091882
-0.1016814824
-0.2486462717
-0.2486235993
-0.251078115
-0.2538363128
-0.2532423876
-0.2521839853
-0.2527248411
-0.2529352539
-0.2528507461
-0.2527800917
-0.2527895728
-0.2528222629
-0.2527868442
-0.2527406481
-0.2527108944
-0.2526660321
-0.2525993362
-0.2525110269
-0.2523958992
-0.2522435184
-0.2520419248
-0.2517766063
-0.2514282129
-0.2509713019
-0.2503729465
-0.2495906053
-0.2485696601
-0.2472386836
-0.2455103483
-0.2432932737
-0.2404663189
-0.2368977579
-0.23245737
-0.22731166
-0.2211548464
-0.2137859658
-0.2064949385
-0.1985943327
-0.1876727848
-0.1730447556
-0.1603359444
-0.1535518421
-0.1432501077
-0.1289931024
-0.1161953603
-0.1047540782
-0.102711735
-0.2486741002
-0.2486628467
-0.2511585523
-0.2539039135
-0.2532955501
-0.2522360614
-0.2527836049
-0.2530125547
-0.2529543655
-0.2529008768
-0.2529428454
-0.2530109441
-0.253031225
-0.2530530326
-0.2531001123
-0.2531568887
-0.2532154801
-0.2532842911
-0.2533668836
-0.2534626426
-0.2535726007
-0.2536985052
-0.2538413004
-0.2540011212
-0.2541772791
-0.2543679654
-0.2545702486
-0.2547802531
-0.2549946772
-0.2552071751
-0.2553891751
-0.2554357714
-0.2550962732
-0.2538000132
-0.2507728045
-0.2455841245
-0.2392756599
-0.2316108736
-0.2212543616
-0.208927442
-0.1967582044
-0.1849307177
-0.1681741114
-0.1525435773
-0.1435099999
-0.132379934
-0.1239384615
-0.1108632298
-0.2484529126
-0.248564993
-0.2514381732
-0.2542527914
-0.2534609259
-0.2525220514
-0.2531465221
-0.2532369857
-0.2531351206
-0.2529634876
-0.2530336688
-0.2531744203
-0.2532637805
-0.2533463408
-0.2534655303
-0.2536339488
-0.2538275282
-0.2540579469
-0.2543409641
-0.2546884285
-0.2551151392
-0.2556400269
-0.2562858745
-0.2570805613
-0.2580588738
-0.2592647744
-0.2607552745
-0.262605839
-0.2649197882
-0.2678272843
-0.271471257
-0.2758170353
-0.2803960946
-0.2834876088
-0.2835288942
-0.2803650697
-0.275256105
-0.2680403681
-0.2566915416
-0.2433413369
-0.2302738626
-0.216333832
-0.2012366419
-0.1875237589
-0.1720686653
-0.1554615108
-0.1431940522
-0.1349044214
-0.1233586242
-0.1283994061
-0.248393209
-0.2475317935
-0.2493814262
-0.255425054
-0.2549684973
-0.2533483464
-0.2525536563
-0.2530570862
-0.2530237681
-0.2532414784
-0.2534030539
-0.2534619083
-0.2535429244
-0.2536951395
-0.2539041438
-0.2541460279
-0.2544464992
-0.2548290919
-0.2553086525
-0.2559058522
-0.2566494477
-0.2575759259
-0.2587310265
-0.2601726551
-0.2619749663
-0.2642341935
-0.2670785902
-0.2706833984
-0.2753038691
-0.2813074276
-0.2892671523
-0.2996486371
-0.3124533115
-0.3231182745
-0.3279001077
-0.3274393602
-0.324898847
-0.320071266
-0.3030893198
-0.281885266
-0.2679971661
-0.2534230502
-0.23618202
-0.2198478432
-0.2033647969
-0.1843597829
-0.171966142
-0.1636836265
-0.1553052757
-0.1478142174
-0.142325523
-0.2479821927
-0.2488728455
-0.2499401498
-0.2553246005
-0.2559980084
-0.2537776285
-0.2531354968
-0.2533879042
-0.2531830183
-0.2533529705
-0.2534570737
-0.2535382586
-0.253660381
-0.2538652729
-0.2541269067
-0.2544414746
-0.2548320444
-0.2553206784
-0.2559306788
-0.2566922563
-0.2576441388
-0.2588352984
-0.2603277809
-0.2622009109
-0.2645573907
-0.2675322371
-0.2713082804
-0.2761398704
-0.282410148
-0.290695921
-0.3020280169
-0.3176274902
-0.3393395608
-0.3580045687
-0.3664115272
-0.3651305273
-0.3684567517
-0.3639573077
-0.3461655987
-0.3323220979
-0.3145899018
-0.2933276401
-0.2737075655
-0.2547773993
-0.2363507761
-0.2195440835
-0.207122116
-0.1917324842
-0.1812261733
-0.1775615535
-0.178942589
-0.1829186742
-0.2463826395
-0.2486778078
-0.2439222958
-0.2589644319
-0.2577961135
-0.2541297088
-0.2527870365
-0.2534256676
-0.2533560511
-0.253429701
-0.2535708242
-0.2537217351
-0.2538652111
-0.2540895254
-0.2544047399
-0.2547863472
-0.2552612884
-0.2558594465
-0.2566097084
-0.2575496892
-0.2587284617
-0.2602084443
-0.2620692287
-0.2644131864
-0.2673735515
-0.2711262113
-0.2759099552
-0.2820569245
-0.2900689646
-0.3007257691
-0.3156451106
-0.3378128637
-0.3747962666
-0.4063456956
-0.4175718575
-0.4226401595
-0.4240303963
-0.4334156191
-0.4075581966
-0.3806581915
-0.3597812718
-0.3450529838
-0.3196363263
-0.2922812141
-0.2713620613
-0.2522986077
-0.2362631897
-0.2223107229
-0.2098702536
-0.2083921915
-0.208435375
-0.2194474728
-0.2348890337
-0.4319526766
-0.4450692732
-0.4281822895
-0.3960803947
-0.3627172256
-0.3430537636
-0.313573704
-0.2845223428
-0.2657109285
-0.2494343984
-0.2383398885
-0.2322882576
-0.2346311373
-0.2426445157
-0.2675587458
-0.2986839924
-0.4578279483
-0.4480057896
-0.4237808573
-0.3844347907
-0.3526448717
-0.3220675156
-0.2927452873
-0.271706099
-0.2569754442
-0.2489481898
-0.2483430648
-0.2553221481
-0.2704747832
-0.3089874273
-0.3491669501
-0.4536329561
-0.4393082107
-0.3993609391
-0.3612214072
-0.3295367341
-0.2966186097
-0.2683476014
-0.251708512
-0.2435723995
-0.245736832
-0.251393931
-0.2671606384
-0.2879906987
-0.4271577341
-0.4053651546
-0.3563078959
-0.3200316227
-0.2796886394
-0.2472282011
-0.2255459468
-0.2118164507
-0.2040289556
-0.1906568197
-0.1917555515
-0.1566562352
-0.4245210186
-0.3819564804
-0.3373969089
-0.2831052971
-0.2409516662
-0.2074689386
-0.1744424061
-0.1474015696
-0.1119760657
-0.08366189614
-0.04634287719
0.004050410429
-0.4063227724
-0.3584742998
-0.304343085
-0.2435713582
-0.1907314624
-0.1432336575
-0.0990688424
-0.05393824647
-0.01008765803
0.03321191938
0.07517046646
-0.3796433135
-0.3248077304
-0.257439333
-0.1911675059
-0.1274209672
-0.07252121717
-0.02068242089
0.03227659296
0.08495959698
0.129814868
0.1850757475
-0.3164068151
-0.2645050297
-0.1926236624
-0.1243126137
-0.06557688796
-0.009162377491
0.04282854339
0.1013827083
0.1493421211
0.1880852817
-0.3640487599
-0.2782464911
-0.219862391
-0.1472229388
-0.07245072278
-0.01091942226
0.04585405424
0.1062238829
0.1561544623
0.1990404091
0.2452945412
-0.2937097561
-0.2344291611
-0.1571536353
-0.08248366339
-0.0211565658
0.03728484911
0.09016091607
0.1466542965
0.1890442691
0.2318868916
-0.3530292197
-0.2518929544
-0.1897119291
-0.1138191381
-0.03797897989
0.02299592869
0.07776025625
0.1361696548
0.1785036259
0.2126217058
-0.2699990111
-0.2033236248
-0.1279617471
-0.05483680094
0.007050888903
0.06438950187
0.1244838261
0.1727715335
0.2135652577
0.2518645138
-0.3306573397
-0.2137041567
-0.1581335381
-0.08296412614
-0.008712356807
0.04825553679
0.09943249524
0.1552653528
0.1940183922
0.2352877192
-0.2308820945
-0.1718399286
-0.09886979872
-0.02449646306
0.03281829297
0.0843234192
0.138451791
0.1767692602
0.2121227139
-0.2857939472
-0.1832447533
-0.1123810429
-0.03754245749
0.01953560655
0.0713867233
0.1246232412
0.1644004355
0.1994350605
-0.2827903407
-0.1805173257
-0.1161966797
-0.04387734838
0.009711596243
0.05884373384
0.111338438
0.1495836844
0.1753266414
-0.2580294138
-0.1697295632
-0.1159568176
-0.04775782924
0.001837742429
0.04658841121
0.08811735379
0.1353185335
0.1786871144
0.2149465132
-0.2389803124
-0.1621784402
-0.1130646486
-0.04988697104
-0.004863648969
0.03628624744
0.07454280068
0.1153464255
0.1461771779
0.1758950952
-0.2125675003
-0.145804263
-0.102404941
-0.04829487359
-0.008687345641
0.02777408824
0.06146031813
0.09485771881
0.1190091976
0.1447708589
-0.1618766165
-0.1155804236
-0.08443386308
-0.04278664927
-0.00978145377
0.02105054731
0.04950671871
0.07791350228
0.09928520958
0.1240240673
-0.1076772284
-0.08250072177
-0.06440254085
-0.03459602742
-0.008900617614
0.01569947312
0.03885346992
0.06106894887
0.07596685384
0.0915834341
-0.07816007692
-0.06125353499
-0.04931179594
-0.02766746739
-0.007754832719
0.0112299373
0.02975149195
0.04641071635
0.05717742083
0.06780774888
-0.06296984625
-0.04949557665
-0.0399988986
-0.02329926166
-0.00724519592
0.007545411558
0.02265949217
0.03602093815
0.04404131119
0.05308627441
-0.05166444082
-0.04084716412
-0.03334100968
-0.0201659987
-0.007060029425
0.004679713817
0.01708040579
0.02805130717
0.03453813433
0.04174266267
-0.04168393861
-0.0333116585
-0.02755276709
-0.01730228137
-0.006771794335
0.002638088486
0.01259046241
0.02125402573
0.02664948602
0.03239399487
-0.03362878946
-0.0272373886
-0.02270103851
-0.0147665414
-0.006428714314
0.001098938402
0.009000713165
0.01585795394
0.02012842893
0.02486342517
-0.02756143222
-0.02260322781
-0.01893793356
-0.01274663295
-0.006149500093
-0.0001283056334
0.006150002944
0.01166650356
0.01502434687
0.01891013961
-0.0228683802
-0.01899240246
-0.01604456735
-0.01116801053
-0.005918759073
-0.001109902546
0.00390251146
0.00833750636
0.01103648966
0.01417314532
-0.01912836478
-0.01609727954
-0.01375043283
-0.009894401132
-0.005711379494
-0.001872860807
0.002137958099
0.00569078736
0.007871972023
0.01038964633
-0.01615102132
-0.0137706452
-0.0119069105
-0.008853292786
-0.005522729826
-0.002461717517
0.0007473354704
0.003590235671
0.005340411429
0.007364261569
-0.01379015347
-0.0119142445
-0.01043254386
-0.008010926711
-0.005359532819
-0.002920454153
-0.000355272063
0.001919157081
0.003319095603
0.004946700259
-0.0119170414
-0.01043705234
-0.009258489183
-0.007336245807
-0.005224904234
-0.003281624171
-0.001231834069
0.0005885395148
0.001708393642
0.003016003506
-0.0104294026
-0.009260920089
-0.008323603891
-0.006796961133
-0.005116146399
-0.003567429616
-0.001929415279
-0.000472582331
0.0004233872724
0.001472892587
-0.009247428754
-0.00832389512
-0.007578209731
-0.006365131348
-0.005027571891
-0.003793438767
-0.002484563693
-0.001319752042
-0.0006029251547
0.0002387231215
-0.008308371907
-0.007577557378
-0.006983937905
-0.006019685333
-0.004955171409
-0.003971759982
-0.002926465903
-0.001996087308
-0.001422798443
-0.0007485013449
-0.00756289838
-0.006984011917
-0.006511270689
-0.005744747826
-0.004897196489
-0.004113578321
-0.003279189943
-0.002536529965
-0.002078257398
-0.001538538924
-0.006972000636
-0.006513117639
-0.006136620905
-0.005527243103
-0.004852227071
-0.004227814349
-0.003561936261
-0.002969327388
-0.002603124421
-0.002171389253
-0.006504436264
-0.006140451486
-0.005840640279
-0.005356078842
-0.004818392172
-0.004320836256
-0.003789545011
-0.003316738731
-0.003024147631
-0.002678966605
-0.00613525741
-0.005846375137
-0.005607572819
-0.005222140286
-0.004793828088
-0.004397329778
-0.003973470688
-0.003596279751
-0.003362610884
-0.003086725003
-0.005844516485
-0.005615136961
-0.005424962297
-0.00511817414
-0.004776981064
-0.004460996497
-0.004122983666
-0.003822018804
-0.003635390737
-0.003415038365
-0.005616524602
-0.005434349505
-0.005282743516
-0.005038484484
-0.004766688893
-0.004514755758
-0.004245119219
-0.004005058331
-0.003856145342
-0.003680161467
-0.005438689258
-0.005293934423
-0.005173176266
-0.004978306761
-0.004761831736
-0.004560975008
-0.00434598258
-0.004154365215
-0.004035514386
-0.003895168864
-0.005301128319
-0.00518617502
-0.005089643599
-0.004933981243
-0.004761612593
-0.004601314784
-0.004429940042
-0.004277117283
-0.004182404905
-0.004070393436
-0.005196271215
-0.005104674275
-0.005027498906
-0.004902675776
-0.004765491744
-0.004637435669
-0.004500788722
-0.00437893675
-0.004303623515
-0.004214608096
-0.005117937195
-0.005044997971
-0.004982765692
-0.004881507882
-0.004772048602
-0.004670036474
-0.004561812125
-0.004465218634
-0.004405536751
-0.004334734
-0.005062029789
-0.005003354794
-0.004952206058
-0.004869605851
-0.004781890053
-0.004700363967
-0.004615325178
-0.004539805062
-0.0044933825
-0.004437556128
-0.005025923517
-0.004978368477
-0.004935911467
-0.004866340777
-0.004794650154
-0.004729616973
-0.004664027864
-0.004607432923
-0.004572528282
-0.004528778237
-0.005009549892
-0.004969898652
-0.004932015989
-0.004871476206
-0.004811601769
-0.004760076318
-0.00471175053
-0.004672222436
-0.004648221833
-0.004615438531
-0.005013987402
-0.004979764921
-0.004943734806
-0.004888128467
-0.004836133605
-0.004795547215
-0.004762531912
-0.004740362085
-0.004727125228
-0.004704451804
-0.005048510206
-0.005012816177
-0.00497560074
-0.004917655941
-0.004869675455
-0.004838371117
-0.004820531217
-0.004818650185
-0.004817149666
-0.004804771001
-0.005120937253
-0.005083079753
-0.005040697277
-0.004962380741
-0.004909653475
-0.004885570343
-0.004887208361
-0.004917978498
-0.004932775944
-0.004931902222
-0.005260826577
-0.005203901812
-0.005158025576
-0.005018645089
-0.004951722096
-0.004933257532
-0.004963543318
-0.005058323638
-0.00509434209
-0.005111848309
-0.005519648009
-0.005426636591
-0.005373561571
-0.005085815632
-0.004997651796
-0.004979212656
-0.005050251122
-0.005292251395
-0.005351943273
-0.005409903496
-0.005994830553
-0.005723301771
-0.005697082543
-0.005107691685
-0.005004139528
-0.004985197079
-0.005081888308
-0.005637640393
-0.005684160034
-0.005911894985
-0.007030558626
-0.006272753363
-0.006344261353
-0.005051772069
-0.004948055251
-0.004929417878
-0.005021723773
-0.006304354033
-0.006254854017
-0.006994247322
-0.008336369086
-0.00584989023
-0.006522804831
-0.004494145114
-0.004575524015
-0.004559415092
-0.00442866303
-0.006511068933
-0.005834905178
-0.008325472113
-0.01154438661
-0.006215206949
-0.007507073327
-0.003529613681
-0.003768349683
-0.003753222323
-0.003482749139
-0.007477718099
-0.006220531655
-0.01160898861
0.002914217853
-9.998224014e-05
-0.001478618831
-0.001968253344
-0.001970890705
-0.001409321474
-7.370535064e-05
0.002989329371
0.007290737042
0.002118765268
0.0004612799696
0.0003498783177
-0.0001307016956
-0.000155000264
0.0003530793167
0.0005239865949
0.005377016539
0.003126022175
-0.2446464717
-0.2591266799
-0.2583492208
-0.2532525973
-0.2519972085
-0.252853682
-0.2525144699
-0.2522086323
-0.2521237113
-0.2520040949
-0.2517635986
-0.2514587006
-0.2510946141
-0.2506499355
-0.250081769
-0.2493635412
-0.2484609652
-0.2473264427
-0.245901771
-0.2441153214
-0.241877786
-0.2390782088
-0.2355786001
-0.2312079562
-0.2257483221
-0.2189349239
-0.2103714262
-0.1996691421
-0.185453148
-0.1681142176
-0.1403836206
-0.1248150162
-0.1098386124
-0.1001495763
-0.2475993554
-0.2474467537
-0.2502973079
-0.2556915754
-0.2549351911
-0.2531447354
-0.2531663295
-0.2531472043
-0.252551915
-0.2522297453
-0.2521945173
-0.2521243188
-0.2519089353
-0.2516228935
-0.2512937345
-0.2508920482
-0.2503804436
-0.2497350863
-0.2489239643
-0.2479030753
-0.2466190579
-0.2450063112
-0.2429827936
-0.2404462464
-0.2372693102
-0.2332933022
-0.2283180178
-0.2220918111
-0.214276788
-0.2044509986
-0.192005491
-0.176678774
-0.1594687481
-0.1447727531
-0.1305519295
-0.1126575827
-0.09962461749
-0.09872833809
-0.09259240074
-0.07824226861
-0.08329400424
-0.2484560297
-0.2489049449
-0.2514093571
-0.2543857294
-0.2540520809
-0.2525367148
-0.2526100423
-0.2527572346
-0.2524400789
-0.2521989865
-0.2521888568
-0.2521562254
-0.2520175838
-0.2517978457
-0.2515393707
-0.2512206764
-0.2508043254
-0.2502700829
-0.2495940387
-0.2487401716
-0.2476633174
-0.2463075572
-0.2446026081
-0.2424606276
-0.2397722963
-0.2364019097
-0.2321809121
-0.2269026209
-0.2203136057
-0.2121321861
-0.2020732568
-0.1901135736
-0.1766863293
-0.1630868296
-0.1479017947
-0.1345920033
-0.127847393
-0.121449352
-0.1122592414
-0.1016330855
-0.0920991705
-0.07702953647
-0.0761978429
-0.2485375651
-0.2486506609
-0.250716995
-0.2537855854
-0.2535810876
-0.2526411544
-0.2531321002
-0.253248228
-0.252885115
-0.252486936
-0.2524639432
-0.2524283418
-0.2522721999
-0.2521007574
-0.2519163654
-0.2516759
-0.2513624275
-0.2509638191
-0.2504597129
-0.2498210541
-0.2490123813
-0.2479899931
-0.2466987116
-0.2450692054
-0.2430148961
-0.2404282918
-0.2371767932
-0.2331021393
-0.228019622
-0.2217503624
-0.2140916072
-0.2050341348
-0.1945679072
-0.1838965068
-0.1739432433
-0.1646697512
-0.1551034737
-0.1445093522
-0.1351411356
-0.1235371721
-0.1138643619
-0.1062330395
-0.09598959937
-0.08095475504
-0.07293886671
-0.07531734611
-0.248929625
-0.2495659946
-0.2525833266
-0.2542729216
-0.2527215248
-0.2518353784
-0.2526680192
-0.2529679156
-0.252652516
-0.252471678
-0.2525181267
-0.2525485592
-0.2524691731
-0.2523636703
-0.2522656379
-0.2521308969
-0.2519432634
-0.2516965633
-0.2513796864
-0.2509736022
-0.2504546313
-0.2497932752
-0.2489516131
-0.2478814439
-0.2465221026
-0.2447977678
-0.2426147553
-0.239860935
-0.2364047868
-0.2321081817
-0.2268129044
-0.220462927
-0.2130277287
-0.2050890719
-0.1968654762
-0.1883842041
-0.1795757439
-0.1710198117
-0.1624943452
-0.1531210867
-0.1419864294
-0.1303653944
-0.1168897111
-0.1043887947
-0.09726452971
-0.08706625205
-0.07183114165
-0.2491364972
-0.2497083764
-0.2526215086
-0.2538362263
-0.2522763898
-0.2518195985
-0.2528842516
-0.2531376903
-0.2527076557
-0.2527022097
-0.2527701309
-0.2527987046
-0.2527534496
-0.2527114409
-0.2526886181
-0.2526488712
-0.2525827361
-0.2524943073
-0.2523783415
-0.2522243584
-0.2520211917
-0.251754885
-0.251406666
-0.2509520248
-0.2503592877
-0.2495875463
-0.248584126
-0.2472834602
-0.2455997408
-0.2434399878
-0.2406810807
-0.2372328964
-0.2329794436
-0.2279015488
-0.2218976805
-0.215018997
-0.2075221683
-0.1994031902
-0.1901163705
-0.1802676122
-0.1682712753
-0.1563584393
-0.1463884787
-0.1328621494
-0.1189375391
-0.1065787387
-0.09592941714
-0.07513596068
-0.08726211741
-0.2491678586
-0.249758077
-0.2526889287
-0.2538763224
-0.2523247195
-0.2518842928
-0.252956942
-0.2532307812
-0.2528236962
-0.2528406135
-0.2529353429
-0.2530039813
-0.2530186757
-0.2530431077
-0.2531037916
-0.2531713477
-0.2532387641
-0.2533175163
-0.2534115162
-0.2535211792
-0.253648936
-0.2537978092
-0.2539701646
-0.2541677681
-0.2543915016
-0.2546405342
-0.2549111328
-0.2551945838
-0.2554728377
-0.2557105741
-0.2558337245
-0.2556960725
-0.2550368163
-0.2534118895
-0.2502153463
-0.2451344953
-0.2384370084
-0.2303613529
-0.2206268242
-0.2095510068
-0.1976389924
-0.1855808106
-0.1740055913
-0.1596647428
-0.1468564739
-0.1349579388
-0.1215722304
-0.1066256219
-0.09813827467
-0.08528525588
-0.2490077424
-0.24963492
-0.2526682263
-0.2544014596
-0.2528709179
-0.2519931682