/*--------------------------------*- C++ -*----------------------------------*\
| =========                 |                                                 |
| \\      /  F ield         | OpenFOAM: The Open Source CFD Toolbox           |
|  \\    /   O peration     | Version:  4.1                                   |
|   \\  /    A nd           | Web:      www.OpenFOAM.org                      |
|    \\/     M anipulation  |                                                 |
\*---------------------------------------------------------------------------*/
FoamFile
{
    version     2.0;
    format      ascii;
    class       surfaceScalarField;
    location    "4";
    object      phi;
}
// * * * * * * * * * * * * * * * * * * * * * * * * * * * * * * * * * * * * * //

dimensions      [0 3 -1 0 0 0 0];

internalField   nonuniform List<scalar> 
70319
(
0.4763163762
-0.1204335578
0.03865230957
-0.177100749
-0.2174343789
0.4735481693
0.004484856997
-0.001716650124
0.4708111288
0.004976490756
-0.002239450312
0.4683009367
0.009574776435
-0.007064584327
0.4670896322
0.009477993444
-0.008266688891
0.4669530661
0.0054934264
-0.005356860352
0.466708759
0.001479309572
-0.00123500242
0.4662190544
6.160293768e-05
0.0004281016055
0.4657609595
-0.0001430237623
0.0006011186823
0.4654733908
3.642175032e-05
0.0002511469848
0.4653563517
0.0003396786163
-0.0002226395702
0.4653070504
0.0006125766768
-0.0005632753947
0.4652412281
0.0008900172993
-0.0008241950043
0.4651345962
0.001187593183
-0.001080961227
0.4649885308
0.00151804705
-0.001371981646
0.4648018711
0.001911269756
-0.001724610052
0.4645662753
0.002397705373
-0.002162109576
0.4642683947
0.003006111203
-0.002708230623
0.4638907871
0.003767908654
-0.00339030107
0.463411295
0.004721188891
-0.004241696822
0.462801488
0.005913376808
-0.00530356983
0.4620244802
0.007403468059
-0.006626460202
0.4610318839
0.009264547143
-0.008271950822
0.4597601356
0.01158667668
-0.01031492838
0.4581230845
0.01448142158
-0.01284437047
0.4560135387
0.0180855936
-0.0159760478
0.4532466933
0.02258627922
-0.01981943388
0.4496950498
0.02820865001
-0.02465700647
0.4444160355
0.03537571545
-0.03009670118
0.4370935226
0.04486787787
-0.03754536504
0.4285291048
0.05594972566
-0.04738530784
0.4086067531
0.07408095381
-0.05415860216
0.3545298391
0.08798394766
-0.03390703366
0.1892911866
0.1652386524
0.09679315217
-0.002357545797
0.005374525627
0.8704147475
-0.003994997749
-0.005274049017
-0.1102253633
-0.1672074595
-0.3065139887
-0.2445787648
-0.03358271133
0.0009625868287
0.7667576373
0.005681184805
-0.02245763243
0.7816287848
0.002918592394
-0.0133048829
0.7865091478
0.002811669379
-0.002715541687
0.7839394638
0.003292376225
0.008852084184
0.775719865
0.00320938869
0.01448820359
0.7667996733
0.002171280642
0.01224233746
0.7608943207
0.001264781117
0.006119881016
0.75820658
0.0008140900431
0.001935253607
0.757014158
0.0006916354766
0.0003577627427
0.7563806013
0.0007372493637
-6.727086548e-05
0.7560131886
0.0008435425163
-0.0001364511859
0.7557841933
0.0009919022862
-0.0001503303428
0.7556172312
0.001238623365
-0.000181643957
0.7554683171
0.001569125567
-0.0002326182618
0.7553070641
0.001977882852
-0.0002985828839
0.7551131227
0.002483848435
-0.0003786372961
0.7548708063
0.003115943834
-0.0004759220368
0.7545640091
0.003908698504
-0.0005957900558
0.7541728638
0.004903472371
-0.0007444184682
0.7536718521
0.006151150209
-0.0009289495745
0.7530278638
0.007715315681
-0.001157950641
0.7521973668
0.009675685125
-0.001441720062
0.7511223693
0.01213196366
-0.001792418997
0.7497250291
0.01520818619
-0.002224169284
0.7478994956
0.01905882034
-0.002751865366
0.7455038818
0.02387368677
-0.003392479335
0.7423305236
0.02990685462
-0.004147217231
0.7381143981
0.0374616353
-0.005036859784
0.7322307175
0.04714470479
-0.00588530877
0.7247096739
0.05945489932
-0.00706597789
0.7137599778
0.07569533355
-0.008795911879
0.6942787925
0.09675393736
-0.003191798309
0.6413609957
0.1194052611
0.02149648326
0.5134096596
0.1343522913
0.1828902314
0.4493197065
0.135025971
-0.07093601804
0.4108487346
0.1476447743
-0.1091738024
0.3520109769
0.1631334679
-0.1042957102
0.2356314314
0.1163795454
0.00408699377
0.192138274
-0.001689634153
0.03209591096
0.8937124349
0.0001564816081
0.01161828296
-0.1960505961
-0.2095348828
-0.2495026554
-0.2543940629
0.9056628132
0.000102477962
-0.00637167144
0.9171325456
0.0002186078684
-0.008769747868
0.9191578909
0.0003049153077
0.0004814087175
0.9122371058
0.0003355129376
0.009877648354
0.9016792416
0.0003337641958
0.01343348872
0.8934093952
0.0003487565311
0.01009237053
0.8894186594
0.0003942081391
0.004861308771
0.8880617343
0.0004580435623
0.001712971512
0.887642823
0.0005454459057
0.0005651009231
0.8874717692
0.0006734111655
0.0002348920108
0.8873581887
0.0008368546381
0.0001202683447
0.8872624543
0.001038157382
4.947927649e-05
0.8871803182
0.001311098823
9.660652291e-06
0.8871041898
0.001656566349
-1.131242204e-05
0.8870211802
0.002084572194
-2.367971566e-05
0.8869206121
0.002617309338
-3.289283091e-05
0.8867932241
0.003285094915
-4.17630615e-05
0.8866288151
0.004124286896
-5.117943895e-05
0.8864144509
0.005179098529
-6.12619252e-05
0.8861329965
0.006504569307
-7.196471017e-05
0.8857614791
0.008169928067
-8.309494211e-05
0.8852687915
0.01026245594
-9.408323804e-05
0.8846123322
0.01289212801
-0.0001037050681
0.8837333277
0.01619692076
-0.0001097301409
0.8825501619
0.02034975372
-0.0001077675378
0.8809498072
0.02556458211
-9.054064134e-05
0.8787702014
0.03212338742
-3.692702194e-05
0.8757968207
0.04038471283
5.030310078e-05
0.8717214458
0.05098533391
0.0002347457757
0.8660551999
0.06459808665
0.000523058497
0.8574998132
0.08324331398
0.00100740623
0.8434736832
0.1061211928
0.004658874498
0.8170909495
0.131558728
0.01422926661
0.7682629372
0.1569649497
0.02621535389
0.7235848451
0.1786804846
0.001023578319
0.6812587207
0.202011758
-0.01204085944
0.6197876645
0.2296623824
-0.005057858385
0.5035979299
0.233503201
0.1183179649
0.4146710065
0.2263514842
-0.137424561
0.3438268476
0.2194977914
-0.1486536327
0.2663666935
0.07746015388
-0.0007021185284
0.204273153
0.002044397035
0.03575703266
0.8936336335
0.00256562253
0.01132456908
-0.2093104864
-0.1953913976
-0.2540172621
-0.2486481974
0.9059508893
-0.00576880032
-0.006445977561
0.9174736923
-0.002506738582
-0.00879745657
0.9195329747
-0.002198044828
0.0004436777683
0.9126802479
-0.002642541834
0.009830781518
0.902195658
-0.00257776493
0.01339611902
0.8939745272
-0.001517601046
0.01008748839
0.8900031529
-0.000513579378
0.004879161855
0.8886537629
6.430348195e-05
0.001743130072
0.8882442841
0.0003664909431
0.0005884337157
0.8880950976
0.0005801247029
0.0002424730014
0.8880275954
0.00077735489
0.0001270019468
0.8879991169
0.0009889241197
7.771178949e-05
0.8879949412
0.001258689098
5.658539052e-05
0.8880078578
0.001592100767
5.154893901e-05
0.8880343036
0.002002300374
5.582603257e-05
0.8880712435
0.002513600683
6.676871911e-05
0.8881169133
0.003156037807
8.338732112e-05
0.8881702566
0.003964864056
0.0001060795214
0.8882298538
0.004983181323
0.000136320027
0.8882932551
0.00626496529
0.0001762027051
0.8883562748
0.007878423173
0.0002284851583
0.8884119216
0.0099099716
0.0002968376117
0.8884488811
0.01246910569
0.0003860627586
0.8884495102
0.01569399638
0.0005022952511
0.8883878333
0.01975843507
0.0006529955507
0.8882284763
0.02487707664
0.0008468624504
0.8879312462
0.03132842993
0.001092187577
0.8874560545
0.03945832975
0.001401574791
0.8867811901
0.0498718331
0.001788365151
0.8857429609
0.0631983646
0.002437951167
0.8834970001
0.08126943427
0.004219840466
0.8780143669
0.1045211831
0.007082642872
0.8670594994
0.1314496263
0.01106396904
0.8503128493
0.1606655128
0.0130460869
0.8324386941
0.1888977131
0.007656926562
0.8123652771
0.2195640072
0.002521167689
0.7826206961
0.2608807421
-0.001473779012
0.725157158
0.2852945278
0.005672211125
0.6652758113
0.3026999631
-0.01646713243
0.5848575352
0.3172118536
-0.01729578658
0.4741009386
0.3050626962
0.07206059368
0.344558473
0.2754769897
-0.1459345241
0.2799779278
0.0645805452
-0.001738914724
0.1564575353
0.001182800005
0.02598630398
0.8705519561
-0.006403525194
-0.1667120738
-0.1099865446
-0.2435599277
-0.3062484298
-0.03534119741
0.0002653648757
0.7672027657
0.1202116532
-0.02263126308
0.7822780488
-0.004337960573
-0.01324406113
0.7873071195
-0.00466291829
-0.00256419722
0.7848223241
-0.009176237811
0.009018491328
0.7766694243
-0.009051939137
0.01462707403
0.7678201908
-0.005019925673
0.01235155806
0.76198524
-0.00091911738
0.006240488812
0.7593582991
0.0006179572875
0.002073287154
0.7582462005
0.0009489947075
0.0005295947752
0.7577166772
0.0009492364444
0.0001604115377
0.7574622999
0.0009011945732
0.0001305377061
0.7573576946
0.0009290022801
0.0001645271078
0.7573497289
0.001052807455
0.0002138473695
0.7574065249
0.001266302651
0.0002690020789
0.7575079841
0.001567347394
0.0003334937544
0.7576450714
0.00196111049
0.0004154029363
0.7578183745
0.002461894869
0.0005208398019
0.7580332157
0.003094548678
0.0006554741882
0.7582969724
0.003892932925
0.0008264916908
0.7586185244
0.004900236569
0.001043176643
0.7590081519
0.006171411038
0.001317384653
0.7594773732
0.007776622762
0.001664127553
0.7600386618
0.009805639304
0.002102177738
0.7607049941
0.01237302746
0.002654636667
0.7614901607
0.01562468548
0.003348582943
0.7624095015
0.01974259626
0.004215139543
0.7634955768
0.02496286212
0.005279492538
0.7648089996
0.03157111045
0.006573796416
0.766543717
0.04007417638
0.008062939364
0.7686211929
0.0509902903
0.01013059831
0.7696884759
0.06509880824
0.01510334296
0.76914009
0.08358328005
0.02148628889
0.7677894483
0.1050973443
0.0277029236
0.7695995433
0.1290590156
0.02979640204
0.7778729172
0.1559772701
0.02464706907
0.7949422326
0.1889011436
0.01359354803
0.8194617932
0.2511624569
-0.0148012756
0.8163292957
0.2970588157
-0.008631790667
0.7916665654
0.3357021725
-0.008339479375
0.7471087829
0.365989019
-0.004219383158
0.6706007536
0.3771160961
0.00445462923
0.5684541972
0.3778006345
-0.0001770886278
0.4151725131
0.3476491075
0.08561050469
0.3278714606
0.08730105244
0.4766056457
0.03842003628
-0.2175723029
-0.1772417259
0.4739430297
-0.001675344556
0.4713436183
-0.00206350698
0.4689610147
-0.006793634126
0.4678370761
-0.007928000626
0.4677686728
-0.0049515223
0.4675640755
-0.0007145200802
0.4671162638
0.001065768993
0.4667351076
0.001330150874
0.4665559721
0.001128371959
0.4665468156
0.0009103510003
0.4666196491
0.0008561687794
0.4667258014
0.000946655208
0.466844302
0.001147802025
0.4669804171
0.001431232338
0.4671451851
0.001796342468
0.4673489162
0.002258163761
0.467601703
0.002841761809
0.467914918
0.003579717962
0.4683022163
0.004512938304
0.4687801376
0.005693489727
0.4693686662
0.007188094138
0.4700919109
0.009082394531
0.470978711
0.01148622737
0.4720642254
0.01453917107
0.4733868248
0.01841999684
0.4750072501
0.02334243683
0.4769699069
0.02960845364
0.4797016673
0.03734241591
0.4838180821
0.04687387549
0.4864108982
0.06250599213
0.4868624588
0.08313171941
0.4864663123
0.1054934906
0.4918818812
0.1236434466
0.513113754
0.1347453971
0.5775309718
0.1244839258
0.6917806441
0.2860556194
-0.149142835
0.7611142788
0.2412804663
-0.01355528552
0.7986220583
0.3148660913
-0.01667169858
0.8022593257
0.3669582986
-0.004606547209
0.7705015166
0.4095652547
-0.0006913497833
0.7099854212
0.4331641576
0.005152572233
0.6005720101
0.4391238847
0.01793863369
0.4716315027
0.4020056459
0.05480632186
0.324743371
0.3531289782
-0.2062408465
0.3095509147
0.01519245561
0.4206975712
-0.1346419519
0.5423900983
0.119587939
0.6568242839
0.3127498396
-0.112317934
0.7293539924
0.295341
-0.0009124101979
0.767242212
0.3804575358
-0.008780500975
0.7634614136
0.4354601531
0.001484802685
0.7196036713
0.4791390355
0.003842591121
0.6312133284
0.4886657593
0.001730228961
0.5303990851
0.4699204051
-0.0159771846
0.3775550362
0.4249176077
0.03747735531
0.334904934
0.0426501019
0.4049573578
-0.09220751839
0.5256617499
0.1746366077
0.6309984467
0.3404148986
-0.06529405977
0.7001146578
0.352467934
0.01387600759
0.7324243497
0.4503700745
-0.003540731571
0.7101147479
0.5140913887
-0.003116028572
0.6434900018
0.5351959673
0.001349182486
0.5375915274
0.5205379467
0.01027813443
0.3743671495
0.4563568706
0.04177244009
0.3464211227
0.02794602692
0.3914936817
-0.05107878339
0.5230895171
0.2208720982
0.6265374702
0.3912671894
-0.04434506906
0.6960818888
0.4530823528
-0.008535384259
0.691452959
0.536283402
0.003541493671
0.6310962294
0.5743972247
0.006497450224
0.5180073902
0.5592713472
0.01017436223
0.3629984359
0.4796247208
0.02180535608
0.3525034487
0.01049498739
0.4461341693
-0.05486698079
0.5557934008
0.3624514948
-0.01902837532
0.6302104731
0.4302660848
0.03160024295
0.6528628155
0.5418915243
0.009853356588
0.6015524751
0.6103266185
0.0002550685173
0.4864403545
0.5952172133
-0.000480371766
0.3449432051
0.5012429833
-0.007242384742
0.3569729073
-0.01202970259
0.3439382992
0.01851319409
0.4793554364
0.2948489464
0.5550730934
0.4389563092
0.02721755613
0.6054425496
0.5696870828
-0.009729921282
0.5646542323
0.6493449919
-0.01333946147
0.4487134916
0.6316904112
-0.01450668821
0.3288475946
0.5184336924
-0.04159488819
0.3685325522
-0.03968495913
0.435061567
0.003894741211
0.5321723181
0.5044907269
-0.03191439644
0.5664523752
0.6433343718
-0.02826943878
0.519205707
0.7001572909
-0.02122021211
0.3973606414
0.6681531728
-0.02787441663
0.2950928592
0.5291201685
-0.058319834
0.3263962971
-0.03130343775
0.4331303935
0.3647945417
-0.2934342106
0.5313840851
0.5869409989
-0.04186031981
0.5292991886
0.7262504114
-0.02400822627
0.4643000808
0.7549529435
-0.02180066291
0.3305197617
0.678412568
-0.01551208031
0.4867202826
0.1701957763
0.3624288447
0.002365695946
0.4441835486
0.4686499342
0.03653635699
0.5032745805
0.6786294506
-0.01147007221
0.4818020601
0.7995521727
-0.02312671077
0.395256531
0.7983092905
-0.03335119315
0.3340913134
0.678029055
-0.1301435535
0.468800252
-0.1347089388
0.3906420996
0.07800783311
0.4404089761
0.5782165579
0.05064601253
0.470127733
0.7946753943
-0.02484197993
0.4354111057
0.8675818609
-0.03455594461
0.3375698904
0.8367479242
-0.06087765401
0.2932558424
0.6717088333
-0.1585945332
0.4066162917
-0.1133604493
0.3575246173
0.4402013496
-0.2195094125
0.4438184393
0.7370305086
-0.02864893871
0.4429284819
0.8960226596
-0.02755084253
0.3899622806
0.9225181847
-0.03280405997
0.2785859095
0.8150697726
-0.03198456792
0.5610511832
0.1241510175
0.3559305168
0.08427083049
0.3903417323
0.6188926772
0.08372661332
0.4255933391
0.8755426284
-0.01477157674
0.4007649291
0.967146972
-0.01980037779
0.3203466509
0.9222748281
-0.02678677748
0.2973785435
0.7272117205
-0.1431924295
0.4223471394
-0.124968596
0.3150688137
0.4802597093
-0.1764358481
0.3974201094
0.8011737567
-0.007982424826
0.3978779012
0.9764741011
-0.009784921062
0.3452336785
0.9830047881
-0.008085737364
0.2342297658
0.8406412042
-0.002425570934
0.5115976898
0.1449792155
0.3418831253
0.1383765829
0.3360396734
0.6603398318
0.1466773757
0.3663370922
0.9383107403
0.007865941941
0.341411166
1.010879432
-0.002948717553
0.2578271341
0.9192299364
0.004995300105
0.6232773128
0.1461475114
0.2693053701
0.5105689336
-0.1195344732
0.336601818
0.8539316942
0.01708259767
0.3264705484
1.020073586
0.0009371157119
0.2611704524
0.9978165932
-0.01328656022
0.2797974098
0.7762071156
-0.1715567592
0.4459692026
-0.1661717926
0.3219450005
0.1886239319
0.2785043634
0.7033519058
0.194020425
0.2984612524
0.9887178341
0.01139886304
0.26515088
1.03184372
-0.0007167539181
0.1786849825
0.8622335758
0.0004394374767
0.5079787733
0.1166754113
0.2186926892
0.6267961669
-0.1421369508
0.2636892861
0.9599512922
-0.0162300548
0.2469448133
1.050504888
-0.001916694749
0.1711354769
0.9215451674
0.01649774423
0.5523496968
0.1267645533
0.1851166212
0.6045267675
-0.1628472217
0.2290327084
0.9458173419
-0.02978213687
0.223689724
1.064545398
-0.008697525713
0.1701161386
0.9699787798
0.00513997367
0.6355133231
0.08695251259
0.1589571905
0.5981479108
-0.1525783336
0.1944397742
0.9443828728
-0.0340481143
0.1929539457
1.082420912
-0.01638968499
0.1564888588
1.031841362
-0.02539749448
0.2314740504
0.7977780701
-0.2372499375
0.4426200065
-0.2111459553
0.1358380333
0.5947932995
-0.1324834218
0.1635422764
0.946845551
-0.03016692101
0.1656001621
1.094675014
-0.01431198742
0.1432319175
1.06627771
-0.01206810275
0.1006376792
0.8717469218
-0.03137461229
0.5017683218
0.04148936482
0.11082923
0.5888053585
-0.1048412889
0.1318856573
0.9479784488
-0.02218932486
0.1353480147
1.100993972
-0.009781314565
0.119952162
1.084837976
-0.003164412536
0.08500711998
0.9023852914
0.00430667339
0.5188576586
0.06791778393
0.08522628917
0.5829800633
-0.07940099376
0.1025102933
0.9476460945
-0.01695164928
0.1068214539
1.103912617
-0.007229805669
0.09940524455
1.09395476
-0.001700573163
0.07279417114
0.9162264688
0.01276989679
0.5322108235
0.05944100688
0.06146732398
0.5799934125
-0.05848067274
0.07587719484
0.9471235706
-0.01388734632
0.08063521185
1.104927136
-0.005772535365
0.07915950575
1.097629596
-0.00219912891
0.0602270726
0.9237155584
0.01144334433
0.5477145738
0.04472332265
0.04441840875
0.5814104592
-0.04583545482
0.05633313808
0.9472203453
-0.01201150329
0.06072398801
1.105306881
-0.004770593237
0.06080651699
1.098911432
-0.001364364456
0.04746753641
0.9277064193
0.009348120321
0.5590328022
0.0361493084
0.03329819166
0.5828980419
-0.03478577365
0.04327295391
0.9469907266
-0.009745142756
0.04652977196
1.105310514
-0.003260450747
0.04610005292
1.099665083
-0.0003239311914
0.03688381245
0.9304489038
0.006473756664
0.566634835
0.02928178008
0.02583899344
0.583892161
-0.0268331118
0.03410941627
0.9464061828
-0.007685878312
0.03619251422
1.105162038
-0.001934620989
0.03515205396
1.100331083
0.000374460745
0.02855036092
0.9324466022
0.004603995348
0.5707465044
0.02443869206
0.02055136633
0.5842162497
-0.02087545436
0.02721516549
0.9456496782
-0.005907293828
0.02840074529
1.10499323
-0.001016770829
0.02724708456
1.100915384
0.0005693606915
0.02203342509
0.9340116348
0.00364862759
0.5727666456
0.02001328433
0.01646215537
0.5839782167
-0.01622412164
0.02176374896
0.9448028107
-0.004454725427
0.02238533682
1.104844717
-0.0004730737663
0.02140011284
1.101449488
0.0004511211993
0.01700587198
0.935356487
0.003049389211
0.5739196573
0.01585286074
0.01316337913
0.5834032613
-0.01258842316
0.0173410812
0.9439744128
-0.003349303463
0.01766181271
1.104707411
-0.0001834257291
0.01691696706
1.101945688
0.0002486461432
0.01319186334
0.9365263504
0.00255524094
0.5748915981
0.01221992298
0.01047519732
0.5827264531
-0.009798388454
0.013721877
0.9432676766
-0.002539942948
0.01389696559
1.104576739
-4.441560377e-05
0.01338369887
1.102363702
9.525347374e-05
0.01032231054
0.9374785111
0.002109228167
0.5758124124
0.009401496752
0.008268324392
0.5821074699
-0.007649340616
0.01075925457
0.9427261488
-0.001949401782
0.0108509555
1.104461188
2.385039741e-05
0.01052534097
1.102674803
1.451401874e-05
0.00811113049
0.9381896441
0.001703078076
0.5766010172
0.007322526075
0.006465674207
0.5816212482
-0.00597945193
0.008345492958
0.9423543087
-0.001507978098
0.008371350532
1.104373086
6.224574312e-05
0.008190651519
1.102885947
-3.044419314e-05
0.006354119094
0.9386765125
0.001349664569
0.5771957087
0.005759428038
0.005022748535
0.5812772275
-0.004678727329
0.00641737384
0.9421296821
-0.001169998227
0.006392637717
1.104323673
7.414969052e-05
0.006314280365
1.10301249
-4.818568592e-05
0.004948812913
0.9389812684
0.001060711986
0.5776046716
0.004539850365
0.003904138881
0.5810439511
-0.003670862016
0.00493475789
0.9420108551
-0.0009117915498
0.004817861825
1.104372246
6.832305855e-05
0.004871743864
1.103017754
-5.914529212e-05
0.003854609845
0.9391634809
0.0008349220126
0.5778784812
0.003580800573
0.003067155422
0.5808758018
-0.002899005616
0.003855336153
0.9419402236
-0.0007175487571
0.003813714869
1.104355669
5.819891782e-05
0.003826354888
1.10306684
-6.172576722e-05
0.003038111248
0.9392867805
0.0006649444943
0.5780754491
0.002841143713
0.002452767963
0.5807358048
-0.002312770522
0.003090082637
0.9418760039
-0.0005730945433
0.003063514217
1.10433237
4.986798952e-05
0.003075424688
1.103107506
-5.257619987e-05
0.002435801644
0.9393883063
0.0005380975588
0.578235761
0.00227549009
0.001990323758
0.5806068857
-0.001861404272
0.002527848684
0.9418023889
-0.0004639095453
0.002518182107
1.104302109
3.992739982e-05
0.00251768523
1.103150353
-4.234913551e-05
0.001978329253
0.9394873916
0.0004402710663
0.5783782291
0.001835861467
0.001622127337
0.5804871424
-0.001502383638
0.002080352729
0.9417215028
-0.0003773389351
0.002084356643
1.104266986
3.111956137e-05
0.002072414723
1.103195018
-3.272352835e-05
0.001612658977
0.9395859103
0.0003612373914
0.5785067414
0.0014841469
0.001316610952
0.5803800251
-0.001209493308
0.00170259768
0.941641463
-0.0003059466353
0.00171424635
1.104230952
2.438610741e-05
0.001696375031
1.103237698
-2.4808195e-05
0.001309211831
0.9396780638
0.0002950101124
0.5786194028
0.001196550724
0.001061295929
0.5802881333
-0.0009694037458
0.001380432723
0.9415687848
-0.0002464581931
0.001394573149
1.104197518
1.929322867e-05
0.001375513469
1.103275893
-1.913481676e-05
0.001055688205
0.9397589298
0.0002389595034
0.5787148035
0.0009602878046
0.0008508015723
0.5802115856
-0.0007742535168
0.001110489074
0.9415064083
-0.0001973107796
0.001124177348
1.10416852
1.531031261e-05
0.001106589605
1.103308827
-1.534552884e-05
0.0008465394389
0.9398269089
0.0001920713755
0.5787935906
0.0007677524978
0.0006799099361
0.5801489342
-0.0006172582608
0.000889415391
0.9414542992
-0.0001573960525
0.0009016005841
1.10414423
1.210492724e-05
0.0008864253035
1.103336694
-1.269190734e-05
0.0006768195747
0.9398829189
0.000153595929
0.5788578142
0.0006125962423
0.0005433805991
0.5800979869
-0.0004924329931
0.0007117233335
0.9414114225
-0.0001254658127
0.0007222762889
1.104124249
9.428533868e-06
0.000709512314
1.103360073
-1.061466392e-05
0.0005409395509
0.9399289181
0.0001225738553
0.578909887
0.0004888669559
0.0004359344732
0.5800560475
-0.0003939948321
0.0005735427566
0.9413745883
-0.0001007738698
0.0005832824044
1.104107443
7.066735924e-06
0.0005716028841
1.103380495
-8.742712967e-06
0.0004342082385
0.9399681397
9.817322499e-05
0.5789528656
0.000391229772
0.0003559067908
0.580019489
-0.0003193481366
0.0004729694163
0.9413400672
-8.254130024e-05
0.0004839129043
1.104091864
4.635147486e-06
0.0004713502885
1.103399968
-6.909514832e-06
0.0003543037993
0.9400053017
7.988467627e-05
0.5789905419
0.0003166276295
0.0003050168798
0.5799816045
-0.0002671321023
0.0004181777578
0.9412983658
-7.145929846e-05
0.0004339217038
1.104074375
1.746073617e-06
0.000415055847
1.10342334
-4.505962997e-06
0.0003031346187
0.940049131
6.809211205e-05
0.5790295847
0.0002640919755
0.0002878809661
0.5799329442
-0.000239220471
0.0004176068823
0.9412368787
-6.82385971e-05
0.0004454955103
1.104048297
-1.811347632e-06
0.0004138371984
1.103455936
-9.376148978e-07
0.0002863233707
0.9401128525
6.379252387e-05
0.5790801669
0.0002357413414
0.0003092142968
0.5798608003
-0.0002370702144
0.0004799301893
0.9411397883
-7.362539765e-05
0.0005258861041
1.104008834
-6.49256601e-06
0.0004717783453
1.103506909
3.135270921e-06
0.000305892547
0.9402118438
6.68946305e-05
0.5791542805
0.000231779048
0.0003560845686
0.5797573334
-0.0002526175397
0.0005831312748
0.940997614
-8.487224483e-05
0.0006554869669
1.103949411
-1.293239233e-05
0.0005755563061
1.103579388
7.451701559e-06
0.0003545433176
0.9403573779
7.547900414e-05
0.5792623116
0.000246512355
0.0004009307293
0.5796259114
-0.0002695086003
0.0006788126145
0.9408173962
-9.766398692e-05
0.0007756724597
1.103873634
-2.108279815e-05
0.0006695938954
1.103676867
8.599455072e-06
0.0003996101768
0.9405460327
8.132898623e-05
0.5794008115
0.0002611103524
0.0004068014681
0.5794873147
-0.0002682046323
0.000700057337
0.9406291341
-0.0001049936062
0.0008817136564
1.103727139
-3.516062458e-05
0.0007025306803
1.103857495
-1.44537319e-06
0.0004106229212
0.9407608483
7.709226644e-05
0.5795536416
0.0002577928946
0.0003527891616
0.5793697075
-0.0002351818267
0.0006129054333
0.9404734675
-0.0001044495726
0.0007204274354
1.103668976
-4.935901462e-05
0.0006295618468
1.103965276
-1.691464004e-05
0.0003670065948
0.9409670318
5.637180804e-05
0.5796983357
0.0002223125106
0.0002607071814
0.5792941966
-0.0001851962521
0.0004582008419
0.9403759962
-0.0001000223485
0.0005424597294
1.103647119
-6.240159992e-05
0.0004786446498
1.104068163
-3.907199688e-05
0.0002816432207
0.9411431301
2.09032821e-05
0.5798176061
0.0001623728589
0.000155941638
0.5792764627
-0.0001382076214
0.0002867005898
0.9403524097
-0.0001071723174
0.0003465143583
1.103678161
-9.085605537e-05
0.0003135914948
1.104178518
-7.743210224e-05
0.0001955391443
0.9412916484
-3.046591184e-05
0.5799205438
9.260151945e-05
7.495005548e-05
0.579301423
-9.991031475e-05
0.0001454904966
0.9404093148
-0.0001274455357
0.0001868349741
1.10377167
-0.0001348535125
0.0001821574437
1.104313057
-0.0001298615595
0.0001219033088
0.9414372987
-8.539614443e-05
0.5800083352
3.411193554e-05
-7.657704721e-05
0.5794974146
-0.0001194144497
1.108951783e-05
0.9405271602
-0.000205511866
7.836035825e-05
1.103916064
-0.0002116651475
0.0001343363385
1.104467717
-0.0002106355805
0.0001722541838
0.9415847734
-0.0001853924273
0.5802245684
-4.397895921e-05
-4.517561079e-05
0.5794770175
6.557274652e-05
-1.745764815e-05
0.9405374841
-3.804185062e-05
2.10554898e-05
1.104074657
-0.0001971057788
5.839097789e-05
1.104626965
-0.000196583791
8.386190922e-05
0.9415839032
-2.460073001e-05
0.5802055992
0.0001028311852
-0.001501425863
0.5810793386
-0.0001008952249
-0.0007550324106
0.9391642251
0.0006268656408
1.393374667e-05
1.103225367
8.032396136e-05
0.0007824145645
1.103775134
8.334983607e-05
0.001531202552
0.9401885065
0.0006466087662
0.5817816914
-4.488962223e-05
-0.004002352108
0.5786808655
0.006400825246
-0.0003701138531
0.9304901744
0.005041812472
0.0001095423238
1.102320874
0.0004248369244
0.0005393716393
1.102892618
0.0004526869714
0.004144179527
0.9314782077
0.005105490926
0.5793883376
0.006537533267
0.1488331113
-0.05307934546
0.216807537
0.2661195628
-0.004834712839
1.068007078
0.01615092081
0.0004400841019
1.101121654
-0.004075577305
0.005558130677
1.101762271
-0.00398769914
-0.148482516
1.069082762
0.01643609247
-0.05272780087
0.2665972876
0.2170363349
0.006103181391
0.1367090759
-0.0008310185339
0.2077347087
0.3794640712
0.3026863781
-0.003064814149
0.03920549504
0.00115066618
0.2431233954
-0.02234205358
0.260011544
0.3094941134
0.3157871703
-0.003688659318
0.2603420334
-0.02199136008
0.2431244569
0.3157827825
0.3093436834
0.2075382095
0.0005357166255
0.1364526113
0.3019703606
0.3796499273
-0.00221152497
0.04145880224
0.00342539587
0.1198793065
0.01340437357
-0.004411453899
0.00122481471
0.2378799433
0.008430091297
-0.0007726426884
-0.001013249912
0.2550317485
0.00709617749
0.003463435134
-0.002507702572
0.1944454425
0.01213703437
0.5089995935
0.01042002545
0.04673356098
-0.1250032429
-0.1675500091
-0.2735999279
0.5067961661
0.003908969782
-0.001705542364
0.5088694108
0.002336958445
-0.004410203119
0.5081056547
0.003335786256
-0.002572030161
0.504011177
0.004260283665
-0.0001658059952
0.4989773059
0.003668679729
0.001365191372
0.4953272661
0.002452827607
0.001197212196
0.4934436741
0.001435093472
0.0004484985217
0.492710646
0.0008358063104
-0.0001027782319
0.4924652137
0.0005900149254
-0.0003445826127
0.4923585238
0.0005776609129
-0.0004709710498
0.4922613388
0.0007162861855
-0.0006191011204
0.4921227864
0.0009280996534
-0.0007895472841
0.4919251501
0.001184318519
-0.0009866822188
0.4916635802
0.001492987714
-0.001231417807
0.4913302402
0.001872821703
-0.001539481722
0.4909095754
0.002345593959
-0.0019249292
0.4903795478
0.002935861614
-0.002405833991
0.4897119648
0.003672706009
-0.003005123015
0.4888712309
0.004591727371
-0.003750993482
0.487812195
0.005736756436
-0.004677720487
0.4864772234
0.007161486599
-0.005826514984
0.4847925072
0.008931365809
-0.007246649649
0.4826621608
0.01112646774
-0.008996121333
0.4799639125
0.01384621537
-0.01114796702
0.476520679
0.01722332373
-0.01378009024
0.4721257576
0.02143807377
-0.01704315232
0.4662343826
0.02676713884
-0.02087576389
0.4580960896
0.03387196875
-0.02573367566
0.4445976597
0.04252751336
-0.02902908351
0.4244945693
0.05787016727
-0.0377670768
0.3639729796
0.07728115592
-0.01675956623
0.2029432033
0.1610297763
0.007237851343
0.1992739641
0.007132833113
0.01467020062
0.9451487344
0.1063845064
0.0006922861265
-0.2196322504
-0.2933398128
-0.2358951531
-0.2452561209
-0.01582992131
-0.0513335979
-0.01264315469
0.01463778541
0.007984237254
-0.0009175384452
0.948783549
0.003035542134
0.003749668638
0.9532606386
0.003928249402
-0.004496369167
0.9501422712
0.006670260885
-0.001214935127
0.9412009575
0.007093444945
0.005183655046
0.9313119329
0.005726491799
0.008422816426
0.9245158785
0.003636181115
0.006828553092
0.9215935395
0.00218770225
0.003187464339
0.9206837755
0.001486875752
0.0008579816471
0.9203490528
0.001119222878
5.130617389e-05
0.9201254034
0.001022074588
-0.0002084102872
0.9199021544
0.001085647931
-0.0002847380135
0.9196641548
0.001288129943
-0.0003338441173
0.9193895086
0.001616584286
-0.0004138384524
0.9190565174
0.002039957153
-0.0005226474122
0.9186410025
0.002568017303
-0.0006595147005
0.9181182518
0.003223691143
-0.000828118802
0.9174590453
0.004041128723
-0.001036328255
0.9166271573
0.00506260817
-0.00129485857
0.9155770528
0.006338945964
-0.001616135385
0.9142508931
0.007932736137
-0.00201484912
0.9125747399
0.009921492756
-0.002508583084
0.91045337
0.01240085393
-0.003117997437
0.907762999
0.01548844262
-0.003866705833
0.9043405709
0.01932933046
-0.004780434586
0.8999697986
0.02410299613
-0.00588600843
0.8943533891
0.03004303534
-0.007203302096
0.8870943599
0.03744044858
-0.008743345663
0.8775120537
0.04675922384
-0.01040977882
0.8648364189
0.05858694154
-0.01203933796
0.8463638582
0.07363326441
-0.01263319042
0.8205549392
0.09497007684
-0.01129099056
0.7623515898
0.1209482904
0.01453621491
0.6464350639
0.1372637775
0.1815959517
0.6026288365
0.08559195012
-0.04178572277
0.4754137012
0.1900461928