/*--------------------------------*- C++ -*----------------------------------*\
| =========                 |                                                 |
| \\      /  F ield         | OpenFOAM: The Open Source CFD Toolbox           |
|  \\    /   O peration     | Version:  4.1                                   |
|   \\  /    A nd           | Web:      www.OpenFOAM.org                      |
|    \\/     M anipulation  |                                                 |
\*---------------------------------------------------------------------------*/
FoamFile
{
    version     2.0;
    format      ascii;
    class       volVectorField;
    location    "4";
    object      U;
}
// * * * * * * * * * * * * * * * * * * * * * * * * * * * * * * * * * * * * * //

dimensions      [0 1 -1 0 0 0 0];

internalField   nonuniform List<vector> 
24850
(
(1.013208553 0.00615154254 0.009147925037)
(1.032928257 0.005159265054 0.006078094468)
(1.023016741 0.01511415945 -0.005740741323)
(1.007420194 0.02842859658 -0.01588511688)
(1.005268148 0.02792009957 -0.01680477048)
(1.005226747 0.01653558191 -0.01057055942)
(1.005148909 0.004968254698 -0.00322179792)
(1.003991241 0.0004999752861 2.781909899e-06)
(1.002909485 -0.0005117029794 0.0007450964613)
(1.002090321 -0.0003616102464 0.0005338410799)
(1.001694728 0.0001815752463 9.331578172e-05)
(1.001584981 0.000655873875 -0.0001806668151)
(1.001481956 0.001067921857 -0.0003290405637)
(1.001298015 0.001467134025 -0.0004398485309)
(1.001024857 0.001885494601 -0.000557095133)
(1.000667747 0.002374229977 -0.0007000595994)
(1.000218168 0.002977602507 -0.0008785340681)
(0.9996511233 0.003732756701 -0.001101651997)
(0.9989329727 0.004678462033 -0.001380565484)
(0.998022189 0.005861728504 -0.001729302732)
(0.9968658438 0.007341380447 -0.002165329916)
(0.9953958471 0.009190796782 -0.002710363037)
(0.9935245626 0.01150126747 -0.003391381473)
(0.9911371483 0.01438635897 -0.004242167804)
(0.988086879 0.01798818218 -0.005303460107)
(0.9841572591 0.02248385665 -0.006631655285)
(0.979142199 0.02810108016 -0.008268311673)
(0.9723153494 0.03514121166 -0.01038192877)
(0.9643040568 0.04383776799 -0.01263785376)
(0.9485153919 0.05598983171 -0.01593964252)
(0.9396922722 0.06894325805 -0.01508052913)
(0.9193728159 0.09499295251 -0.0151954182)
(0.9146950348 0.1137119367 -0.01669888257)
(0.9114204238 0.1212376146 -0.01752771304)
(1.009623277 0.000963585939 0.001672290716)
(1.008625518 0.001564945145 -0.003170224898)
(1.016934979 0.007358275843 -0.005512448065)
(1.036915622 0.003173107017 -0.007048004417)
(1.04445634 -0.000662981785 -0.001171090844)
(1.043404215 -0.002460152318 0.01136516029)
(1.035494358 -0.003387710658 0.01849488769)
(1.02292861 -0.003109499097 0.01579577121)
(1.012073347 -0.001900539944 0.007758443527)
(1.007031789 -0.0007992929699 0.002482032242)
(1.004969388 -7.824610318e-05 0.0004473351)
(1.003913653 0.0004204114276 -0.0001023606469)
(1.003293738 0.0007779930046 -0.0001630822397)
(1.002932282 0.001072791407 -0.0001373514677)
(1.002685134 0.001425513814 -0.0001370035534)
(1.002490933 0.001848150809 -0.0001676571794)
(1.002293649 0.00234755466 -0.0002155864728)
(1.002061769 0.00295429681 -0.0002746565799)
(1.001776377 0.003707179529 -0.0003461289082)
(1.001417203 0.004648651938 -0.0004341663798)
(1.000960559 0.005827608236 -0.0005436579554)
(1.000377304 0.007303330952 -0.0006801625677)
(0.9996298337 0.009149302437 -0.0008504082129)
(0.9986692764 0.01145695966 -0.001062743911)
(0.99743196 0.01433999233 -0.001327522206)
(0.9958335426 0.01793957266 -0.00165770803)
(0.9937636174 0.02243236324 -0.002068764496)
(0.9910643552 0.02803624324 -0.002581674341)
(0.987546732 0.035042148 -0.003209021191)
(0.9828099489 0.04376196514 -0.003992630917)
(0.9767085622 0.05484855883 -0.004766526524)
(0.9673277193 0.06862606788 -0.005680370486)
(0.9587355106 0.08735232767 -0.005042467523)
(0.9452209384 0.1127846938 -0.004407394322)
(0.9451620003 0.1364699263 -0.003754095899)
(0.9146897946 0.1567617951 -0.0009891404373)
(0.9122533778 0.180971624 0.003167624109)
(0.8893895707 0.2098234371 -0.003950002452)
(0.8814760541 0.2392656083 -0.007485672812)
(0.8639142244 0.2471355961 -0.01423321206)
(1.005289909 0.0002372267933 -0.0001946891241)
(1.007135736 0.001304594264 -0.002929528353)
(1.01897064 0.002121294114 -0.007044528934)
(1.033346227 0.003163544114 -0.007117537833)
(1.041176089 0.006198970577 0.003740330713)
(1.036625612 0.009677574311 0.01675055721)
(1.025294675 0.01053288122 0.02083911587)
(1.013249054 0.008117506542 0.01498186705)
(1.006586421 0.004849599718 0.007027926578)
(1.004257521 0.002740958343 0.002513914157)
(1.003574023 0.001721965202 0.0008115472064)
(1.003336093 0.001297678126 0.0002796942964)
(1.003197589 0.00117530263 0.0001107238459)
(1.003073575 0.001235036742 2.595140341e-05)
(1.002975739 0.001465873368 -2.222947176e-05)
(1.002894282 0.001822441805 -5.071474337e-05)
(1.002807033 0.002283816038 -7.24585007e-05)
(1.00270479 0.002863430403 -9.40806053e-05)
(1.002578425 0.003591519766 -0.0001190321237)
(1.002416461 0.004506823736 -0.000149242715)
(1.002206124 0.005657112964 -0.0001861867847)
(1.001931293 0.007101936233 -0.000231531609)
(1.001570283 0.008916057087 -0.0002873439912)
(1.001094144 0.01119353997 -0.0003561608804)
(1.000464332 0.01405282886 -0.0004410497281)
(0.9996288617 0.01764316483 -0.000545905229)
(0.9985182786 0.02215425168 -0.0006749408553)
(0.9970341458 0.02782614149 -0.0008348577428)
(0.9950488537 0.03498087449 -0.001028910629)
(0.9923413893 0.04401259634 -0.001264314047)
(0.9887285526 0.05561095705 -0.001479687169)
(0.9835006428 0.0703463614 -0.001707082447)
(0.9770543976 0.0903085412 -0.001545023714)
(0.9695532193 0.1140353764 -0.0011374798)
(0.9623962152 0.1423888257 -0.000719023463)
(0.9512161858 0.1742000747 0.0008347746086)
(0.935413505 0.2049072176 0.003049734244)
(0.9161020667 0.2312711838 0.0006831506252)
(0.8960823663 0.2691547204 -0.005372719341)
(0.8821100761 0.2865816994 -0.006081275401)
(0.8507028113 0.3076072344 -0.001317365368)
(0.8412859875 0.3295331826 -0.004846990523)
(0.8393829171 0.3410216952 -0.009019221776)
(1.005212709 -7.240634053e-05 -6.483881783e-05)
(1.007308986 -0.001252994798 -0.002889322423)
(1.019079431 -0.002058084534 -0.007026585095)
(1.033347704 -0.003002842957 -0.00713535451)
(1.041105941 -0.005859545004 0.003704072216)
(1.036572652 -0.009168294738 0.0166979878)
(1.02531323 -0.009918651673 0.02078777781)
(1.013331927 -0.007403381945 0.01496142084)
(1.006701219 -0.0040085407 0.007043611361)
(1.004385638 -0.001744165767 0.002558133794)
(1.003707199 -0.0005207729489 0.0008588226321)
(1.003484905 0.0001916123279 0.0003098506862)
(1.00337726 0.0006690231914 0.0001396692232)
(1.003324343 0.001041764482 8.808671232e-05)
(1.003311839 0.001405894381 7.549886061e-05)
(1.003321979 0.001806663234 7.93827241e-05)
(1.003344633 0.00228344502 9.226241171e-05)
(1.003380288 0.002871332492 0.0001124859121)
(1.003427696 0.003606618756 0.0001400329841)
(1.003484334 0.004530389602 0.0001759135937)
(1.003548942 0.005691835748 0.000222072291)
(1.003620026 0.007151997685 0.0002811437441)
(1.003694509 0.008987631198 0.0003564866765)
(1.003767273 0.01129550791 0.0004523824407)
(1.003830389 0.01419779322 0.0005742475332)
(1.003872092 0.01784892311 0.0007288253572)
(1.003875625 0.0224458727 0.0009242868103)
(1.003820356 0.02823956591 0.001169984209)
(1.003680687 0.03556699167 0.001474124437)
(1.003452136 0.0448595963 0.001841309391)
(1.003109481 0.05683485085 0.00223824329)
(1.00285277 0.07226011732 0.002584998309)
(1.002033632 0.09330899685 0.002554129754)
(0.9996315823 0.1190837834 0.001957315875)
(0.9930001435 0.1481404219 0.001145903797)
(0.9842317285 0.1791763412 0.001547424251)
(0.9708202106 0.2113259191 0.002221376842)
(0.9529743625 0.2407180566 0.00105692352)
(0.9260801815 0.2766364954 -0.003002068756)
(0.9120598662 0.3047786776 -0.003187386336)
(0.8704249437 0.3375995028 -0.000554771941)
(0.8583358884 0.3641979087 -0.0005343702078)
(0.8180041405 0.3729436281 -0.002321064771)
(0.8154355937 0.4014625616 0.001135985739)
(0.7967451727 0.4047255501 -0.003471336198)
(1.007521738 -0.001037576367 0.0001392119353)
(1.008487687 -0.001386575772 -0.003104340795)
(1.01679717 -0.007079085034 -0.0053495001)
(1.036840688 -0.00278220154 -0.006769354153)
(1.044417389 0.001155235865 -0.0008526095685)
(1.043390446 0.003034947683 0.01163555891)
(1.035513068 0.004018403571 0.01868281605)
(1.023016117 0.003828295729 0.01591259175)
(1.012262705 0.002760501117 0.007853121372)
(1.007300738 0.001823575732 0.002588530009)
(1.005325413 0.001329523064 0.0005867395972)
(1.00439691 0.001143363205 7.555690885e-05)
(1.003930735 0.001146546367 3.4801885e-05)
(1.003716583 0.00128517053 8.295912488e-05)
(1.003650887 0.001556711674 0.0001391699059)
(1.003698238 0.001930429357 0.0001881437745)
(1.00380893 0.002410242848 0.0002368176257)
(1.003967065 0.003018762714 0.0002950201912)
(1.004172092 0.003787789625 0.0003692474731)
(1.004428093 0.00475827929 0.0004640794943)
(1.004743528 0.005981854453 0.0005845368154)
(1.005129742 0.007523527 0.0007370682165)
(1.005599922 0.009465633377 0.0009299586825)
(1.006169367 0.01191253198 0.001173714611)
(1.006855787 0.01499653276 0.001481506434)
(1.007680186 0.01888558615 0.001869721123)
(1.008667124 0.02379466441 0.002358042016)
(1.009855231 0.02999793411 0.002970248375)
(1.011290674 0.03786259204 0.00372521533)
(1.013143828 0.0478467097 0.004639642333)
(1.01550357 0.0607253724 0.005595419204)
(1.019470483 0.0773674859 0.00640411674)
(1.0230304 0.1008145694 0.005546692007)
(1.023287291 0.1314462902 0.003343454992)
(1.018086353 0.1657736715 0.0009280683359)
(1.009629675 0.201182214 -0.0003260641619)
(1.000148709 0.2374079195 -0.001119872682)
(0.9874924028 0.2759284087 -0.002502765725)
(0.9633114448 0.3158686481 -0.004043052513)
(0.949522042 0.3422789892 -0.003447098043)
(0.9221067566 0.3671720601 -0.00263349138)
(0.8901157296 0.394277211 -0.002924263431)
(0.8605071522 0.4122829043 -0.004431992227)
(0.8187932062 0.4366009701 -0.0009083698074)
(0.8059332141 0.4483140036 0.001196732146)
(0.7681885399 0.4482825504 0.009384164807)
(1.012783399 -0.006050980465 0.009136908828)
(1.032623908 -0.005096993139 0.006090057791)
(1.022864881 -0.01493326223 -0.005721565318)
(1.007498474 -0.02807399878 -0.01584369108)
(1.005463379 -0.0274832433 -0.01673357158)
(1.005580102 -0.01598840154 -0.01046298625)
(1.005604116 -0.004259553768 -0.003041533506)
(1.004507356 0.0003699185447 0.0002666412897)
(1.003524268 0.001514167447 0.001042480245)
(1.002949998 0.001562144564 0.0008814504397)
(1.002785517 0.001367775383 0.0005702313975)
(1.002892106 0.001283755424 0.0004193100003)
(1.00310841 0.001358070888 0.0003952967117)
(1.003351793 0.001589540789 0.0004630931252)
(1.003619417 0.001954396899 0.0005787209776)
(1.003937627 0.002444566681 0.000728101942)
(1.004329883 0.003071168204 0.0009152179312)
(1.004816622 0.003863387509 0.001150996268)
(1.005420358 0.004864159011 0.001449134207)
(1.006168056 0.006128792338 0.001826159467)
(1.007092384 0.007727661997 0.002302835538)
(1.008233079 0.009750813014 0.002905633436)
(1.009638466 0.01231392878 0.003668289806)
(1.011368681 0.01556618329 0.004633840956)
(1.013497178 0.01970166974 0.005856543605)
(1.016132181 0.02497299944 0.007407293928)
(1.019389185 0.0317204033 0.009365403672)
(1.023654189 0.0403779831 0.0118589405)
(1.029028958 0.05162493609 0.01482092824)
(1.038810795 0.06624708323 0.01827594278)
(1.048911644 0.08658032187 0.01836244753)
(1.052753901 0.1136487756 0.01493614548)
(1.04560195 0.145480511 0.0106578934)
(1.034998701 0.1812111522 0.009755417042)
(1.019226447 0.220933736 0.008322282062)
(1.0313257 0.2602565313 -0.00134575642)
(0.9758749986 0.3121588134 -0.006004765551)
(0.9603983309 0.3588067711 -0.006604453371)
(0.9452353842 0.3945870708 -0.003523909438)
(0.9247599727 0.4252030592 -0.001998098517)
(0.9024117561 0.4463057999 -0.000945667849)
(0.8494880832 0.4706662669 -0.0007062954037)
(0.8313595037 0.4880028424 -0.00131325653)
(0.7633458294 0.483989 0.007640199673)
(0.7777566423 0.5230537896 0.00608634192)
(0.6999753581 0.4880667634 -0.003686617856)
(0.9994515983 0.3400981056 0.01380954815)
(0.9723448338 0.3562963861 -0.00022772179)
(0.9428098144 0.4078712851 -0.004590294226)
(0.9213438551 0.4494358142 -0.003911186075)
(0.9086380404 0.4831510806 0.0003386351152)
(0.8864158212 0.506007236 0.00097861768)
(0.8594548726 0.5245144416 -0.000838666725)
(0.8071767155 0.5360410168 0.002957201706)
(0.7577545456 0.5442087272 0.003299856433)
(0.7601143643 0.5687685019 0.001111676315)
(0.6426544216 0.5049350327 0.00644056801)
(0.9653193408 0.4302920965 0.01616252114)
(0.9353874269 0.4459266152 0.002024605637)
(0.9009201763 0.4969336273 -0.004343936546)
(0.8813009867 0.5347928982 -0.004599415388)
(0.8643240165 0.568098724 -0.002958711203)
(0.8388140273 0.5790710813 0.0001396572022)
(0.7890322419 0.5892026327 0.0009487844176)
(0.7384418418 0.5883968223 -0.001622635229)
(0.7246567272 0.6040068571 0.004717972897)
(0.6202088 0.5375640375 0.008190538893)
(0.9138072323 0.5191477791 0.009578026513)
(0.8863981652 0.5325625508 -0.002788667851)
(0.8459041836 0.5796047274 -0.009408016073)
(0.8399945449 0.6208155178 -0.006064901997)
(0.8178580337 0.6298075904 -0.003580751477)
(0.7731424592 0.6371807053 -0.003221854932)
(0.7149508544 0.6290641116 0.002719663358)
(0.6862802597 0.6298017299 0.008423744559)
(0.592385868 0.5700068642 0.008997490486)
(0.8414133166 0.5995386186 -0.0002315073164)
(0.8116930868 0.6265170674 -0.004293994259)
(0.7989859322 0.6680733831 -0.00656867363)
(0.7797562969 0.6854305198 -0.005037252201)
(0.7408463995 0.6862046469 -0.0009167469775)
(0.682415341 0.6672925501 0.005481866633)
(0.6290359729 0.6441548946 0.006225565101)
(0.5537482126 0.6009907667 0.00544358889)
(0.8009232433 0.644772798 0.005331730944)
(0.7712284438 0.6557247024 -0.004531701699)
(0.7328110913 0.6982573789 -0.009153634146)
(0.7244959371 0.7405250692 -0.007287709084)
(0.691212808 0.736318759 -0.002880069495)
(0.642105264 0.7153637637 0.001980015039)
(0.5632849688 0.6602359417 0.0004172725362)
(0.5299196762 0.6614800578 7.097204509e-05)
(0.71242506 0.7092184748 -0.00321352423)
(0.6930086771 0.754301042 -0.009891576594)
(0.6723938394 0.7755645422 -0.01041415956)
(0.6375638539 0.7739712064 -0.00506114874)
(0.5821890203 0.7536493666 -0.002005317036)
(0.5032520293 0.6950298997 -0.002365628817)
(0.4875407234 0.7242643371 0.005980142585)
(0.6926428338 0.8167799419 0.005428308812)
(0.6566118709 0.8326736036 -0.008528430707)
(0.6280481299 0.8309570996 -0.009095878352)
(0.5841244309 0.8313543569 -0.005560187239)
(0.5255689012 0.8058378669 -0.00500303598)
(0.4924303944 0.7661835536 -0.01123344257)
(0.6639516018 0.8426487354 -0.002604119381)
(0.6202032419 0.8602946002 -0.0131227359)
(0.6018043115 0.900791648 -0.01543744169)
(0.5746905797 0.899279066 -0.0118104558)
(0.5269600298 0.8916692347 -0.007005562981)
(0.4703522551 0.8498954497 -0.01429294585)
(0.4569785895 0.8766336564 -0.01160452014)
(0.6013228446 0.8705465602 -0.003319299488)
(0.5757824307 0.920865562 -0.01342246494)
(0.5553101208 0.9583678185 -0.01557108953)
(0.5211330962 0.9549340102 -0.008910935658)
(0.4791425236 0.9450569971 -0.008367737282)
(0.430633131 0.906642704 -0.006494675439)
(0.4276237042 0.9432284832 -0.002719608162)
(0.5687514964 0.9866917222 0.007964138298)
(0.5414515699 1.022366736 -0.007928460673)
(0.5154349814 1.021463663 -0.008102431782)
(0.4859096263 1.028974199 -0.005835487091)
(0.442707422 0.9995920058 -0.003239653781)
(0.4259897226 0.9598608667 -0.01259314359)
(0.5528212616 1.027829665 -0.007095682932)
(0.5101147889 1.050492209 -0.01599751757)
(0.4959473079 1.073721636 -0.01436143725)
(0.474423357 1.07449715 -0.008035231937)
(0.4341145103 1.053264114 0.0009247241719)
(0.392909379 0.9942957897 -0.00200319768)
(0.3793823811 1.014575212 0.008043739469)
(0.5036155786 1.106671554 0.005016554919)
(0.4801235913 1.124505241 -0.01031698367)
(0.4639534507 1.123158376 -0.008197725902)
(0.428497069 1.101443666 0.001891617373)
(0.3945386699 1.076207891 0.004789407782)
(0.3640524104 1.032480868 0.002325449169)
(0.4810543908 1.138856165 -0.01742843534)
(0.4339747261 1.139110007 -0.02317843138)
(0.4234488877 1.160456577 -0.01350071751)
(0.4074889193 1.145558813 -0.00243217762)
(0.3844049206 1.110548453 0.008541168632)
(0.3704597282 1.067155639 -0.0004632561693)
(0.4205589546 1.17977016 -0.003992493543)
(0.4058129452 1.191350961 -0.01001728944)
(0.384778013 1.175729575 -0.005079802675)
(0.3534433231 1.153886028 0.01008857405)
(0.3149223556 1.078116154 0.01016013616)
(0.3006752456 1.093231785 0.01774041774)
(0.395809704 1.200392307 -0.02401090836)
(0.3524595846 1.193860773 -0.02400161529)
(0.3431197034 1.203544106 -0.008989185578)
(0.3321811065 1.181760437 0.00675899848)
(0.2984057066 1.131062012 0.01309643449)
(0.2760854862 1.101747654 0.01295479705)
(0.3319112601 1.226843145 -0.008319343153)
(0.3148230234 1.219080109 -0.009563468872)
(0.3019666419 1.20576988 0.002480723663)
(0.2765900946 1.168830753 0.01652061411)
(0.2532622183 1.086533384 0.01358008543)
(0.307998455 1.264576272 -0.01289662766)
(0.2711275491 1.232694101 -0.01473115941)
(0.2627493697 1.221035883 -0.003650199492)
(0.2547362858 1.186419808 0.0174140624)
(0.2498821054 1.129594298 0.007939518045)
(0.2732166341 1.273791189 -0.0166417378)
(0.2287492438 1.242366876 -0.01985213758)
(0.2205952313 1.229670191 -0.008880189262)
(0.2110153335 1.199583287 0.01718683784)
(0.1842907783 1.122085465 0.01472935736)
(0.1685970939 1.130902594 0.03086114596)
(0.239758936 1.279673432 -0.01787357553)
(0.1912034759 1.2510366 -0.02320300964)
(0.1874356407 1.237362667 -0.01126736575)
(0.1785545256 1.212871832 0.0139103203)
(0.1559256238 1.17497177 0.01978823706)
(0.1430065438 1.131898327 0.02824315815)
(0.1997356599 1.278369071 -0.02179375763)
(0.1511572366 1.259316191 -0.02637057847)
(0.1533862321 1.245322203 -0.01234679806)
(0.1443331322 1.227610204 0.007372170928)
(0.1321073094 1.19904689 0.0227818162)
(0.1234982734 1.122124015 0.02774919679)
(0.1539434195 1.269010434 -0.02741402566)
(0.1130970125 1.263247038 -0.02740864512)
(0.1218106708 1.250280396 -0.01186845133)
(0.1141442164 1.235834161 0.001671763674)
(0.1131787508 1.210823981 0.02674360819)
(0.1066868089 1.132208891 0.02894175557)
(0.1092977447 1.256206074 -0.02985976178)
(0.07976812667 1.261167558 -0.02389912935)
(0.09236009267 1.251253477 -0.009664564166)
(0.0872156579 1.240217737 -0.0008617692199)
(0.09225032887 1.220689356 0.02986296261)
(0.08912801798 1.159937618 0.03081513102)
(0.07721042023 1.250506855 -0.02503313688)
(0.05790535292 1.257733083 -0.01702691603)
(0.06953905906 1.250333071 -0.006450132053)
(0.06625662909 1.241882192 -0.0005082592387)
(0.07171960694 1.22805762 0.02601306378)
(0.0713639461 1.192225177 0.026500424)
(0.05557771304 1.252081156 -0.01866185788)
(0.04482418385 1.256317899 -0.01114942758)
(0.05307723081 1.24970691 -0.003744765518)
(0.0507436284 1.24261419 0.000914806725)
(0.05402126092 1.232633681 0.01736441807)
(0.05641251557 1.213523432 0.0195902362)
(0.04126867138 1.255683033 -0.01390524671)
(0.03633657089 1.256078364 -0.0076808729)
(0.04107240779 1.249566176 -0.002085509216)
(0.03925677204 1.24323469 0.001877115745)
(0.04089279691 1.235175298 0.009600369007)
(0.04375949055 1.224593272 0.01345654684)
(0.0318062091 1.257595877 -0.01077283396)
(0.02983421286 1.255455158 -0.005737861626)
(0.03210751552 1.249420506 -0.001208446655)
(0.03070924507 1.243812891 0.001946938228)
(0.03159967346 1.237087509 0.005009978454)
(0.03326721384 1.229969063 0.009204652728)
(0.02494465016 1.257548559 -0.008419138944)
(0.02439836397 1.254271884 -0.004433876002)
(0.0252464205 1.249173367 -0.0007437583745)
(0.02424785219 1.244338334 0.001464912191)
(0.02477376796 1.238887831 0.003004859101)
(0.02521693518 1.232748242 0.006689887693)
(0.01963861487 1.25639882 -0.006472379471)
(0.01980662882 1.253003436 -0.003402935353)
(0.01989090346 1.248940936 -0.0004734450819)
(0.01925188148 1.244866461 0.0009258788453)
(0.01960251443 1.240542577 0.00237551639)
(0.01931700526 1.234831199 0.005158195351)
(0.01550839925 1.254884204 -0.004920226149)
(0.01595205121 1.251909954 -0.0025861783)
(0.01568998973 1.248751076 -0.000308427762)
(0.01532026351 1.245378458 0.0005632366326)
(0.01562961609 1.241964608 0.00214454168)
(0.01504637258 1.236900951 0.004085281585)
(0.0122681954 1.253366137 -0.003751998094)
(0.01276706596 1.25100678 -0.001980455051)
(0.01240100235 1.24857094 -0.0002122924841)
(0.0121940694 1.245810155 0.0003681245584)
(0.01249726057 1.243126238 0.00187322869)
(0.01189441319 1.238856504 0.003266814151)
(0.009714649963 1.25200796 -0.002898018395)
(0.01018670943 1.250266743 -0.001545292383)
(0.009818872738 1.248390699 -0.000158458914)
(0.009701201302 1.246142641 0.0002639946752)
(0.009993081901 1.244039703 0.001535285293)
(0.009470271516 1.24049739 0.002618437903)
(0.007702807058 1.250884595 -0.002268158475)
(0.008122501847 1.249673763 -0.001224286194)
(0.007788301257 1.2482171 -0.0001248636303)
(0.007717119561 1.246394789 0.0001971518104)
(0.007986720166 1.244749659 0.001216020354)
(0.00754568357 1.241783768 0.002094567796)
(0.006113538753 1.249993815 -0.001787800206)
(0.006471686684 1.249206087 -0.0009752996067)
(0.006186917832 1.248074263 -9.658586646e-05)
(0.006144499842 1.246586916 0.0001496572675)
(0.006380747663 1.245304282 0.0009592063566)
(0.006007401327 1.24277269 0.001671692052)
(0.004853039497 1.249292462 -0.001411046572)
(0.00514852345 1.248837865 -0.0007763161323)
(0.00491365843 1.247956586 -7.190418619e-05)
(0.004898757714 1.246753914 0.0001159539941)
(0.005100276419 1.245738867 0.0007631772896)
(0.004782763127 1.243538019 0.001334098477)
(0.003854238801 1.248736269 -0.001114350656)
(0.004096016967 1.248545903 -0.0006180416415)
(0.0039037908 1.247863559 -5.476697833e-05)
(0.003902857216 1.24689055 8.885778907e-05)
(0.004071730664 1.246082391 0.0006102805681)
(0.003806667525 1.244140562 0.001065341274)
(0.003063372199 1.248291605 -0.0008818290148)
(0.003260668262 1.248311959 -0.0004929011488)
(0.003103753439 1.247784165 -4.372232389e-05)
(0.003107029433 1.246998724 6.678429894e-05)
(0.003245440784 1.246352326 0.0004882313106)
(0.003028401994 1.244618462 0.0008509670285)
(0.002435838939 1.247934538 -0.0006993252898)
(0.00259664762 1.248124414 -0.0003936435958)
(0.002469384107 1.247715343 -3.561460953e-05)
(0.002472796086 1.247081794 5.019712795e-05)
(0.00258512466 1.246563271 0.0003904006918)
(0.002409289596 1.244997001 0.000679702181)
(0.001936947536 1.247647695 -0.0005551807516)
(0.002068408597 1.24797486 -0.0003144157807)
(0.001966045554 1.247657791 -2.894285311e-05)
(0.001968282673 1.247146544 3.832717197e-05)
(0.002059382929 1.246728703 0.000312055319)
(0.001917342288 1.245297006 0.0005426267483)
(0.001540242686 1.247417178 -0.0004408244444)
(0.001648268553 1.247855628 -0.0002509117361)
(0.001566466387 1.247610923 -2.343576824e-05)
(0.001567389553 1.24719844 2.96224134e-05)
(0.001641183218 1.246859391 0.0002492189444)
(0.001526243466 1.245535913 0.0004327662563)
(0.001225185674 1.247231655 -0.000350074818)
(0.001313975317 1.24775999 -0.0001999309459)
(0.00124869376 1.247572885 -1.899249453e-05)
(0.001248802388 1.247240734 2.292503207e-05)
(0.001308352428 1.246963296 0.000198745655)
(0.001215220645 1.245727136 0.0003448080261)
(0.0009746771846 1.247081772 -0.0002780676379)
(0.001047719404 1.247682785 -0.0001591313478)
(0.0009957575096 1.247542036 -1.544416756e-05)
(0.0009954313357 1.247275438 1.768953402e-05)
(0.001043391318 1.247046265 0.0001582690957)
(0.0009678724781 1.245880682 0.0002746262266)
(0.0007763865077 1.246961543 -0.0002212283133)
(0.0008352768182 1.247620522 -0.0001265781908)
(0.0007935029148 1.247517127 -1.262675067e-05)
(0.0007934025213 1.247303944 1.359867396e-05)
(0.000831878821 1.247112809 0.0001258720225)
(0.0007711754131 1.246003878 0.0002187760619)
(0.000617742081 1.246864693 -0.0001760775353)
(0.0006661169906 1.247570787 -0.0001009837767)
(0.0006329182824 1.247497543 -1.047447478e-05)
(0.0006322578147 1.247327334 1.040690076e-05)
(0.0006633153543 1.247166059 0.0001000904979)
(0.0006143774855 1.246102538 0.0001744277406)
(0.0004927430737 1.246788977 -0.0001407753007)
(0.0005303749242 1.247531269 -8.078069949e-05)
(0.0005032681508 1.247482229 -9.000355056e-06)
(0.0005031917615 1.247346536 7.702602032e-06)
(0.000527983933 1.247208781 7.953061034e-05)
(0.0004893510925 1.246180939 0.0001392259922)
(0.0003916794116 1.246729174 -0.000112888822)
(0.000423548315 1.247501195 -6.546802368e-05)
(0.0004013206175 1.247471194 -8.256844214e-06)
(0.0003998891031 1.247362431 5.210434437e-06)
(0.0004192678545 1.247242986 6.318522323e-05)
(0.0003890039091 1.246242908 0.0001113411374)
(0.0003111531955 1.246683809 -9.136877232e-05)
(0.000335776268 1.247477112 -5.354520833e-05)
(0.0003193484799 1.247463116 -8.630637871e-06)
(0.0003164398049 1.247375603 2.439976868e-06)
(0.0003325240777 1.247270159 5.025845693e-05)
(0.0003078963966 1.246291926 8.955753839e-05)
(0.0002454966679 1.246649225 -7.538778513e-05)
(0.0002697929084 1.247460255 -4.528326228e-05)
(0.000253319725 1.247457274 -9.94562035e-06)
(0.000249087391 1.247386201 -4.19412724e-07)
(0.0002590556757 1.247293638 3.942512072e-05)
(0.0002427419014 1.246330804 7.272526665e-05)
(0.0001926454832 1.246624035 -6.347950056e-05)
(0.0002112143432 1.247446124 -3.844919315e-05)
(0.0002024121191 1.247452699 -1.206000378e-05)
(0.0001948186532 1.24739503 -3.519744693e-06)
(0.0002048658164 1.24731134 3.131120222e-05)
(0.0001899383929 1.246363495 6.003127626e-05)
(0.0001452963953 1.246601851 -5.445199629e-05)
(0.0001685990724 1.24743903 -3.418693017e-05)
(0.0001602699991 1.24744804 -1.39423733e-05)
(0.0001519257001 1.24739809 -6.485418628e-06)
(0.0001556551611 1.247330758 2.316916368e-05)
(0.0001479316404 1.246395084 4.962345656e-05)
(0.0001107780469 1.246592742 -4.801983847e-05)
(0.0001274072775 1.247436866 -3.080838387e-05)
(0.0001261664701 1.24744403 -1.386058751e-05)
(0.0001209984815 1.24741202 -6.358821623e-06)
(0.0001277723261 1.24734829 1.73793857e-05)
(0.0001185949951 1.246426291 4.168700673e-05)
(7.586152983e-05 1.246585892 -4.060017677e-05)
(9.375826913e-05 1.247445615 -2.951303291e-05)
(9.442012353e-05 1.247462337 -1.345769397e-05)
(0.0001027715108 1.247432166 -6.453700295e-06)
(0.0001106613378 1.247373347 1.039335285e-05)
(0.0001002946057 1.246457468 3.46771352e-05)
(5.489763785e-05 1.246607888 -3.6200702e-05)
(6.952396079e-05 1.247467403 -3.135101685e-05)
(7.18848149e-05 1.247491364 -1.768815079e-05)
(8.975465457e-05 1.247467272 -1.212646439e-05)
(9.847430654e-05 1.247410785 4.376215549e-07)
(8.596950229e-05 1.24650671 2.677669199e-05)
(3.313694835e-05 1.246639565 -3.380837995e-05)
(4.456973143e-05 1.247505477 -4.06278746e-05)
(5.169288067e-05 1.247527401 -3.124058145e-05)
(8.293402935e-05 1.247508585 -2.742681393e-05)
(9.491699393e-05 1.247463187 -1.701367595e-05)
(8.882378519e-05 1.246559559 1.754966362e-05)
(3.622202269e-05 1.246779394 -4.091730406e-05)
(1.62235109e-05 1.24758563 -5.272727618e-05)
(3.249370679e-05 1.247596604 -5.349920547e-05)
(8.104463043e-05 1.247583164 -5.127456285e-05)
(9.924799399e-05 1.247556823 -3.622108892e-05)
(6.552553724e-05 1.246722034 -1.397563561e-06)
(-0.0001231179003 1.246829354 -7.465983642e-05)
(-8.693172886e-05 1.247695642 -0.0001349220083)
(-2.415158044e-05 1.24765321 -0.0001095747984)
(0.0001174344326 1.247642963 -0.0001058609723)
(0.0001810966608 1.24767745 -0.0001228204647)
(0.0002050134548 1.246792022 -4.843064647e-05)
(-1.652910083e-05 1.248094574 -7.183018941e-05)
(-0.0001362166173 1.248041471 -0.0001492815505)
(-5.392498679e-05 1.247874867 -0.0001700107171)
(0.000134446221 1.247868423 -0.0001694894004)
(0.00021515015 1.248032353 -0.0001392497624)
(8.09328127e-05 1.248076842 -5.194437728e-05)
(-0.00088118757 1.246750635 -0.001527275097)
(-0.001193643821 1.247940943 -0.0008009415079)
(-0.0003230990454 1.247898666 -0.0004282619355)
(0.0003760987843 1.247883858 -0.0004330315225)
(0.001253549494 1.247916599 -0.0007932830265)
(0.0009371914291 1.246747107 -0.001522098329)
(-0.001698910685 1.263032946 0.0002716093646)
(-0.001080156836 1.249350572 -0.0005806002973)
(-0.0003273879426 1.247833514 -0.000968158749)
(0.0003445771418 1.247828183 -0.000959589445)
(0.001122937611 1.249364262 -0.0005808536051)
(0.001759814708 1.262990161 0.0002899517245)
(-0.004740514678 1.237964577 -0.01543515561)
(-0.006809766927 1.246688201 -0.003390030336)
(0.0002631371077 1.248749156 -0.0007723248104)
(-0.0002503284691 1.248723903 -0.000767753999)
(0.006835854362 1.246530788 -0.003375583876)
(0.004808726121 1.238002228 -0.01540788617)
(-0.002998936959 1.239863337 -0.004847646163)
(0.001332287388 1.245750189 -0.001756963969)
(-0.001415440857 1.24584873 -0.001738428239)
(0.002994398201 1.239789283 -0.004776960249)
(-0.002523015399 1.239955156 -0.00356126325)
(0.001243824111 1.238752327 -0.0009531998448)
(-0.0003772631181 1.239114491 -0.001125526118)
(0.001828926734 1.239380645 -0.003529960867)
(1.015016851 0.007500254758 -0.001187582564)
(1.031246995 0.005834325853 -0.00610208222)
(1.036400322 0.004126528788 -0.01441510707)
(1.035221408 0.004697101084 -0.01544815145)
(1.029455818 0.005963852757 -0.0106039096)
(1.019692788 0.005391838369 -0.003546338149)
(1.010042698 0.003333258407 0.0002710787584)
(1.00451898 0.001586475489 0.0007244550492)
(1.00232863 0.000682947265 0.0002966551647)
(1.001617252 0.000403181093 -3.591046093e-05)
(1.001344657 0.0004523837861 -0.000246324506)
(1.001162032 0.0006674599339 -0.0004196269834)
(1.000943851 0.0009255066985 -0.000557425338)
(1.000606845 0.001198166993 -0.0006940347112)
(1.000139681 0.001509737624 -0.0008625404847)
(0.9995387604 0.001890051311 -0.001078496585)
(0.9987801266 0.002364665375 -0.001350582142)
(0.9978240191 0.002958342045 -0.001690295831)
(0.9966197298 0.003699830536 -0.002113730541)
(0.9951037979 0.004624657145 -0.002641366889)
(0.9931960657 0.005776876623 -0.003298441308)
(0.9907951139 0.007210870218 -0.004115882241)
(0.9877722013 0.008993554771 -0.005131716141)
(0.9839637271 0.01120719942 -0.006391914323)
(0.9791542697 0.01395291517 -0.007954538977)