/*--------------------------------*- C++ -*----------------------------------*\
| =========                 |                                                 |
| \\      /  F ield         | OpenFOAM: The Open Source CFD Toolbox           |
|  \\    /   O peration     | Version:  4.1                                   |
|   \\  /    A nd           | Web:      www.OpenFOAM.org                      |
|    \\/     M anipulation  |                                                 |
\*---------------------------------------------------------------------------*/
FoamFile
{
    version     2.0;
    format      ascii;
    class       volScalarField;
    location    "2";
    object      ccy;
}
// * * * * * * * * * * * * * * * * * * * * * * * * * * * * * * * * * * * * * //

dimensions      [0 1 0 0 0 0 0];

internalField   nonuniform List<scalar> 
24850
(
5.588112051
5.612397484
5.609420851
5.60889283
5.608827415
5.608797301
5.608787559
5.608785443
5.608785143
5.608784975
5.608784735
5.608784504
5.608784331
5.608784214
5.608784135
5.608784071
5.608783997
5.60878388
5.608783654
5.608783189
5.608782257
5.608780548
5.608777908
5.608775034
5.608774868
5.608783867
5.608809397
5.608845411
5.608840725
5.608631513
5.609376409
5.610964963
5.615950488
5.598601062
6.298798742
6.470296109
6.501259224
6.536856123
6.534787958
6.534372238
6.534317628
6.534289409
6.534278726
6.534275681
6.534274934
6.534274634
6.53427439
6.53427419
6.534274045
6.534273944
6.534273865
6.534273781
6.534273665
6.534273469
6.53427311
6.53427242
6.534271065
6.534268467
6.53426384
6.534256691
6.534248345
6.534244453
6.534255649
6.534287655
6.534308815
6.534201853
6.534148693
6.534225942
6.534238379
6.495158925
6.545757576
6.567300496
6.587415378
6.581381888
7.244113455
7.503587702
7.503702036
7.502540665
7.502203257
7.501980748
7.501909948
7.501871811
7.501855142
7.501849
7.501846989
7.501846337
7.501846089
7.501845964
7.501845889
7.501845833
7.501845778
7.501845706
7.501845595
7.501845407
7.501845079
7.501844458
7.501843225
7.501840721
7.501835835
7.501827315
7.50181542
7.501805965
7.501815626
7.501870769
7.501983206
7.502077521
7.502072735
7.50180074
7.50085595
7.501092272
7.506956606
7.515669012
7.52344503
7.490019825
7.547958981
7.581329832
7.588759319
8.250994865
8.493473559
8.493785607
8.494870943
8.494954438
8.494933609
8.494840331
8.494790137
8.494767084
8.494757959
8.494754878
8.494754039
8.494753896
8.49475392
8.494753958
8.494753974
8.494753964
8.494753927
8.494753855
8.494753732
8.494753523
8.494753139
8.494752325
8.494750467
8.494746344
8.494738254
8.494725691
8.494714465
8.494725966
8.494804822
8.495007944
8.49533954
8.495937408
8.496832119
8.497819742
8.498499797
8.499142921
8.499638134
8.499874595
8.500812707
8.507412518
8.519500696
8.494241379
8.561610662
8.587199693
9.232253473
9.526088527
9.496493395
9.46103564
9.462954836
9.463190533
9.463118479
9.463077953
9.463057819
9.463049121
9.463045999
9.463045184
9.46304514
9.46304527
9.463045387
9.463045456
9.463045485
9.463045483
9.463045456
9.463045411
9.46304535
9.463045243
9.463044926
9.463043882
9.46304089
9.463033958
9.463021808
9.463009337
9.463018989
9.463104712
9.463355967
9.463887812
9.465256494
9.468020282
9.471965444
9.477149054
9.484495321
9.493442699
9.499908655
9.50034456
9.49895121
9.497892757
9.49977341
9.510356968
9.492853628
9.530911394
10.41031949
10.38624124
10.38915939
10.38958517
10.38957439
10.38956266
10.38955374
10.38954884
10.38954688
10.38954642
10.38954652
10.38954672
10.38954688
10.38954698
10.38954704
10.38954706
10.38954707
10.38954707
10.38954709
10.38954716
10.3895472
10.38954685
10.38954501
10.38953946
10.38952742
10.38950911
10.38949629
10.38952399
10.38965752
10.38997971
10.3920593
10.39798498
10.40802852
10.42050519
10.43597373
10.45944191
10.51766487
10.48884323
10.49701186
10.49837547
10.49715074
10.49605245
10.49893806
10.47261515
10.54875872
10.58031957
11.43559464
11.43991701
11.50401902
11.48202917
11.49392724
11.49675683
11.49566307
11.49666375
11.50756284
11.49325565
11.54693962
12.40975326
12.42670515
12.49890038
12.48216999
12.49490565
12.49692308
12.49613296
12.50011445
12.48251626
12.54074866
13.40834304
13.43369344
13.51349176
13.49207714
13.49680847
13.49623337
13.49979631
13.48187783
13.54098985
14.44968724
14.49607756
14.48375556
14.49590466
14.49717796
14.50058259
14.48341227
14.54467717
15.40354532
15.44074664
15.52103356
15.49617828
15.49799394
15.50154711
15.48623489
15.5516657
16.47360963
16.52842524
16.49935647
16.4980257
16.50184857
16.48724997
16.57507311
17.53087384
17.49462324
17.49862912
17.49735388
17.50159698
17.46794464
18.41819268
18.50663152
18.49354701
18.49822498
18.49809143
18.47340733
18.54776407
19.44377732
19.52004839
19.49764135
19.49784758
19.50240034
19.49055582
19.58514986
20.52005745
20.49156848
20.49822752
20.49864085
20.5060941
20.48040438
21.41584042
21.51572202
21.49683776
21.49858742
21.4997989
21.4771695
21.58936265
22.51368445
22.4895171
22.49791176
22.49876072
22.50497308
22.50113059
23.41158706
23.51558356
23.49652655
23.49839861
23.49949174
23.46440054
24.51541727
24.49163377
24.4993088
24.50065698
24.47595813
24.59148236
25.41779631
25.52142271
25.49818093
25.49972321
25.504744
25.50995714
26.53668269
26.49981755
26.49979918
26.50033562
26.48976192
27.51403653
27.5013656
27.50072082
27.50134315
27.46704165
28.50636432
28.50220511
28.50137734
28.50240631
28.47990271
28.60092006
29.50431163
29.50176911
29.50096229
29.50109183
29.50687829
29.51774802
30.50292395
30.50126585
30.50073546
30.50046732
30.50105861
30.50204922
31.50188652
31.50086425
31.50048102
31.50016351
31.50000976
31.50018051
32.5012214
32.50063255
32.50030073
32.50000635
32.49981528
32.49976187
33.50050402
33.50027121
33.50013029
33.50001214
33.49994211
33.49995056
34.50019646
34.500109
34.50004976
34.50000094
34.49997806
34.49997542
35.50006696
35.50004113
35.50001671
35.49999681
35.49998981
35.49998526
36.50001959
36.50001517
36.50000532
36.49999718
36.49999491
36.49999239
37.50000535
37.5000062
37.5000021
37.49999839
37.49999719
37.49999659
38.50000289
38.50000391
38.50000158
38.49999891
38.49999745
38.49999757
39.50000482
39.50000482
39.50000214
39.49999848
39.49999579
39.49999565
40.50000912
40.50000782
40.50000346
40.49999727
40.49999238
40.49999133
41.50001467
41.50001201
41.50000529
41.49999567
41.49998792
41.49998563
42.50001959
42.50001585
42.50000723
42.49999431
42.499984
42.49998059
43.50002162
43.50001772
43.50001234
43.4999878
43.49998242
43.49997855
44.50001963
44.50001613
44.50000584
44.49999294
44.49998432
44.49998057
45.50001469
45.50001221
45.50000449
45.49999494
45.49998823
45.49998548
46.50000912
46.50000774
46.50000291
46.49999687
46.4999926
46.49999101
47.50000474
47.50000415
47.50000162
47.49999838
47.49999608
47.49999535
48.50000209
48.50000193
48.50000081
48.49999933
48.49999826
48.49999799
49.50000082
49.50000084
49.50000043
49.49999984
49.49999939
49.49999929
50.50000034
50.50000043
50.50000034
50.50000013
50.49999994
50.49999985
51.50000022
51.50000038
51.50000043
51.50000038
51.50000026
51.50000011
52.50000023
52.50000051
52.50000069
52.50000074
52.50000062
52.50000034
53.50000025
53.50000074
53.50000115
53.50000135
53.50000123
53.50000074
54.5000001
54.50000098
54.50000188
54.50000247
54.50000243
54.50000163
55.49999943
55.50000109
55.50000301
55.50000449
55.50000476
55.50000354
56.49999783
56.50000093
56.50000482
56.50000805
56.500009
56.50000721
57.49999519
57.50000081
57.50000792
57.50001396
57.50001595
57.50001331
58.49999253
58.5000021
58.50001366
58.5000232
58.50002607
58.50002173
59.4999924
59.50000774
59.50002445
59.50003733
59.50003952
59.50003144
60.49999843
60.50002206
60.50003812
60.50006262
60.50005727
60.50004146
61.50001417
61.50005076
61.50007717
61.50009
61.50008243
61.50005308
62.5000437
62.50010142
62.50013793
62.50014735
62.50012509
62.50007258
63.50009711
63.50019229
63.50024763
63.5002534
63.50020682
63.50011454
64.50020398
64.50037091
64.50046503
64.50046781
64.5003779
64.50021213
65.50044705
65.50076624
65.50094581
65.50094663
65.50076817
65.50044909
66.50104239
66.50171725
66.5021033
66.50210316
66.50171637
66.50104094
67.50142086
67.50347124
67.50478942
67.50478959
67.50347004
67.50141875
68.49510559
68.50443239
68.51048083
68.51048305
68.50443555
68.49510906
69.53137572
69.54077913
69.51898069
69.51898294
69.54079997
69.53142377
70.54923502
70.54224783
70.54220779
70.54907908
71.28990503
71.29247162
71.29090674
71.29249944
3.617473784
3.621515105
3.62009451
3.620084514
3.620144204
3.620160337
3.620163261
3.620162682
3.620161534
3.620160583
3.620159938
3.620159539
3.620159301
3.620159155
3.620159057
3.620158968
3.620158842
3.620158607
3.620158129
3.620157199
3.620155596
3.620153362
3.620151425
3.620152401
3.620160323
3.620175676
3.6201792
3.620098431
3.619760858
3.618815636
3.620486509
3.62358349
3.589053135
4.217454884
4.482215804
4.448021472
4.452478396
4.451991895
4.45195157
4.451942243
4.451927167
4.451916757
4.451910685
4.451907094
4.451904871
4.451903479
4.45190262
4.451902097
4.451901771
4.451901539
4.451901322
4.451901033
4.451900548
4.451899653
4.451897996
4.451895053
4.451890199
4.451882964
4.451873339
4.451861156
4.451841527
4.451790297
4.451632051
4.451189475
4.450124027
4.449864939
4.447398184
4.396303685
4.446518758
4.475677753
4.493467614
4.543260273
4.559589234
5.469377959
5.435139695
5.413296605
5.398125987
5.396337682
5.395982006
5.395886843
5.395827645
5.395794944
5.395777475
5.39576787
5.395762336
5.395759046
5.395757067
5.395755869
5.395755118
5.395754594
5.39575413
5.395753564
5.395752684
5.395751156
5.395748417
5.39574353
5.39573502
5.395720675
5.395697235
5.395659308
5.395595562
5.39547755
5.395234104
5.394704859
5.393535611
5.392268996
5.389167108
5.383681096
5.377631185
5.34510342
5.365352075
5.395673135
5.405044777
5.475193234
5.516038539
5.538790214
6.474067298
6.478898438
6.48439729
6.486653441
6.487104953
6.487128654
6.487071681
6.487026458
6.487000164
6.486986299
6.486979039
6.486975091
6.486972852
6.486971543
6.486970749
6.486970224
6.486969798
6.486969323
6.486968628
6.486967462
6.486965409
6.486961746
6.486955242
6.486943836
6.486924255
6.486891516
6.486838117
6.486751716
6.486607789
6.486350453
6.485854635
6.484877875
6.483120757
6.47877796
6.466453178
6.377093428
6.344160769
6.342198591
6.356330199
6.367271999
6.348973214
6.384119932
6.408169093
6.50191883
6.533588699
7.492939629
7.494199956
7.495466645
7.496122514
7.496308742
7.496293236
7.496243381
7.496206505
7.496185769
7.496175514
7.496170709
7.496168444
7.496167323
7.496166722
7.49616636
7.496166091
7.496165813
7.496165425
7.496164793
7.496163701
7.496161778
7.496158375
7.496152367
7.496141856
7.496123834
7.496093992
7.496046958
7.495976862
7.495876263
7.495727811
7.495480167
7.495004643
7.494059392
7.491826466
7.486415752
7.475382297
7.466090886
7.462206885
7.456690734
7.375081234
7.348554193
7.354718209
7.374301496
7.369254782
7.400021577
7.508856829
7.539143291
8.502809419
8.50242327
8.501903678
8.501490303
8.501271276
8.501175257
8.501125446
8.501098405
8.501085468
8.501080356
8.501078878
8.501078767
8.501079015
8.501079265
8.501079419
8.501079463
8.501079391
8.501079174
8.501078739
8.50107795
8.501076561
8.50107413
8.501069874
8.501062455
8.501049794
8.501029262
8.500998973
8.500961063
8.500926741
8.500919812
8.500973407
8.501125089
8.501484471
8.501948772
8.501877326
8.500381209
8.498099595
8.494961085
8.488723256
8.476546546
8.465974784
8.458004719
8.381131153
8.361152093
8.377170221
8.39906562
8.422563471
8.470595478
9.518467624
9.516992053
9.513132523
9.511352275
9.51095994
9.510875445
9.510863141
9.510861537
9.510862798
9.510865221
9.510867823
9.510870021
9.510871621
9.510872674
9.51087331
9.510873651
9.510873791
9.510873766
9.510873576
9.510873182
9.510872483
9.510871291
9.510869233
9.510865638
9.510859447
9.510849607
9.510836915
9.510828943
9.510849445
9.510952478
9.511244501
9.511952187
9.513779771
9.51741682
9.522596433
9.527911509
9.531002275
9.529324899
9.519639916
9.505329424
9.494652025
9.485348258
9.473429896
9.459820804
9.385016511
9.360506324
9.34254849
9.37469281
9.501180182
9.555256578
10.52150677
10.56094585
10.58497731
10.60065691
10.60255199
10.60289715
10.60296126
10.60299715
10.60301713
10.60302883
10.60303613
10.60304083
10.60304383
10.6030457
10.60304682
10.60304748
10.60304784
10.60304801
10.60304807
10.60304805
10.60304797
10.60304788
10.60304777
10.60304754
10.60304691
10.60304556
10.60304446
10.60304989
10.60308245
10.60319385
10.60350087
10.60425816
10.60732395
10.61509091
10.62777974
10.64236124
10.65576178
10.65640521
10.62624499
10.53629549
10.51929284
10.50568811
10.49525995
10.48382045
10.4656153
10.37504799
10.35091432
10.37126359
10.40790019
10.45412793
10.53299525
11.30110135
11.51487496
11.55090943
11.54689485
11.54751354
11.54757991
11.54758542
11.54759285
11.54759816
11.54760174
11.54760434
11.54760623
11.54760753
11.54760836
11.54760887
11.54760915
11.54760931
11.54760939
11.54760942
11.54760945
11.54760952
11.54760969
11.54761001
11.54761037
11.54761034
11.54760897
11.5476056
11.54760314
11.54761611
11.54768608
11.54791838
11.54863012
11.55284232
11.56478573
11.58522355
11.61057114
11.63850255
11.66443374
11.64230539
11.63861743
11.611331
11.52931128
11.51629862
11.50366514
11.49097612
11.47427282
11.45895352
11.38802395
11.3782965
11.39914437
11.44168001
11.5228558
12.19453931
12.19366082
12.38161967
12.37809356
12.37968113
12.37973863
12.37968568
12.37966607
12.37965938
12.37965784
12.37965813
12.37965883
12.37965943
12.37965985
12.3796601
12.37966024
12.37966031
12.37966035
12.37966037
12.37966041
12.37966048
12.37966065
12.37966092
12.37966118
12.37966089
12.37965902
12.37965453
12.37964881
12.37965118
12.37968776
12.37982248
12.38027865
12.38556189
12.40259042
12.4325296
12.47352585
12.51962648
12.5464587
12.61794215
12.62843913
12.61674126
12.62522502
12.60610461
12.52873761
12.51521908
12.49951111
12.48586037
12.46856632
12.38955198
12.37625414
12.39712644
12.4403054
12.52479506
13.47644148
13.48941418
13.58388253
13.61371187
13.61512032
13.63027128
13.60999928
13.52408323
13.50649097
13.49177054
13.47149986
13.39026138
13.37721688
13.39986092
13.44624669
13.53561041
14.4537368
14.47917113
14.59097881
14.62970013
14.62270437
14.60435375
14.53224144
14.51604836
14.49584724
14.47307693
14.39219611
14.38121625
14.40664306
14.45426145
14.55323173
15.48072397
15.51537473
15.63344949
15.61688059
15.63710383
15.61390228
15.52116856
15.49599735
15.47369604
15.39571886
15.38860275
15.41663644
15.44558008
16.51536131
16.60227915
16.6437906
16.63268941
16.60694542
16.51390228
16.49299651
16.47398891
16.40157257
16.4275483
16.4115753
16.50618888
17.50781815
17.57805869
17.60193111
17.58300624
17.52504102
17.5054462
17.4898709
17.47237108
17.4191866
17.40956602
17.44781398
17.55402012
18.49695303
18.57657697
18.56866173
18.59329439
18.51916964
18.50042629
18.48270597
18.39744621
18.38991986
18.42344811
18.46208593
19.49160526
19.61715205
19.60557903
19.59485495
19.51096519
19.49416479
19.47709323
19.40778477
19.44013556
19.43465853
19.55471329
20.56230243
20.57912864
20.56758965
20.51706738
20.50207534
20.49052912
20.47824372
20.43521375
20.43660308
20.46585944
21.45991662
21.56495977
21.55635641
21.58477573
21.50926061
21.49745079
21.48611002
21.41236974
21.44955104
21.44778638
21.57024433
22.52705592
22.5573515
22.5567977
22.5137191
22.50241919
22.49356331
22.48360576
22.47678306
22.47393087
22.48701529
23.43902439
23.55185053
23.5492514
23.5821623
23.50884698
23.49795726
23.48759326
23.43775067
23.43474119
23.45537625
24.52450062
24.55539041
24.55716618
24.51448652
24.50220948
24.49059252
24.4151878
24.45359816
24.45291629
24.58391943
25.43775465
25.55997104
25.55446531
25.58549383
25.50813184
25.49696643
25.48822293
25.48919539
25.49077208
25.50065049
26.55049543
26.56577668
26.5598697
26.50853228
26.49933128
26.49245666
26.48222503
26.47670567
26.484912
27.52824793
27.52694995
27.51920513
27.50634925
27.49961392
27.49229539
27.44523682
27.44370284
27.48774825
28.51381743
28.51449858
28.51018821
28.50421595
28.49958496
28.49244914
28.42138271
28.46202638
28.45672577
29.50894526
29.5089508
29.50646979
29.5028553
29.5000691
29.49671287
29.49186138
29.49810525
29.46988233
29.59849223
30.50548095
30.5057578
30.50436024
30.50202918
30.50037567
30.49880917
30.49730556
30.49817375
30.50296573
30.51690945
31.50356313
31.50356499
31.502822
31.50141822
31.50039991
31.49956796
31.49897859
31.49913466
31.49986665
31.50202342
32.50231575
32.50210805
32.50175511
32.50096097
32.50030768
32.49978481
32.49943161
32.49935597
32.49940191
32.49958362
33.50097931
33.50093101
33.50082276
33.50050938
33.500174
33.49989566
33.49972224
33.49973348
33.49979695
33.49991076
34.50038732
34.50039054
34.500365
34.50024541
34.5000841
34.49994353
34.49985915
34.49986159
34.49990479
34.49997234
35.50013769
35.50015009
35.50014988
35.50011116
35.50003629
35.49996683
35.49992552
35.49992458
35.49995059
35.4999883
36.50004425
36.50005379
36.50005838
36.50004875
36.50001443
36.49998024
36.49995991
36.49995987
36.49997476
36.49999441
37.50001355
37.50001914
37.50002312
37.50002179
37.50000565
37.4999884
37.49997813
37.49997927
37.49998776
37.49999755
38.50000471
38.50000797
38.50001103
38.50001116
38.5000027
38.49999307
38.49998721
38.49998858
38.49999384
38.4999989
39.50000264
39.50000517
39.50000818
39.50000806
39.50000226
39.4999953
39.49999068
39.49999158
39.49999572
39.49999902
40.50000262
40.50000553
40.50000933
40.50000867
40.500003
40.49999591
40.49999066
40.49999078
40.49999513
40.49999838
41.50000331
41.50000719
41.50001215
41.50001097
41.50000427
41.49999559
41.49998879
41.49998811
41.49999332
41.49999734
42.50000405
42.50000889
42.50001485
42.50001333
42.50000558
42.49999487
42.4999867
42.49998542
42.49999148
42.49999638
43.5000043
43.50000951
43.50001588
43.50001437
43.50000695
43.49999308
43.49998577
43.49998438
43.49999076
43.49999598
44.5000038
44.50000852
44.50001441
44.50001292
44.50000491
44.4999946
44.49998727
44.49998582
44.49999168
44.49999638
45.50000278
45.50000637
45.50001112
45.50001004
45.50000374
45.49999604
45.49999023
45.49998911
45.49999379
45.49999735
46.50000169
46.500004
46.50000733
46.50000675
46.50000259
46.49999749
46.49999359
46.4999929
46.49999614
46.4999984
47.50000088
47.50000215
47.5000042
47.50000401
47.50000166
47.49999872
47.49999644
47.49999607
47.499998
47.4999992
48.50000042
48.50000105
48.50000219
48.50000225
48.50000112
48.49999963
48.49999843
48.49999821
48.49999915
48.49999967
49.50000022
49.50000055
49.50000119
49.50000143
49.50000101
49.50000034
49.49999971
49.49999947
49.49999977
49.49999991
50.50000017
50.50000042
50.5000009
50.50000134
50.50000133
50.50000106
50.50000065
50.50000025
50.50000013
50.50000005
51.5000002
51.50000052
51.5000011
51.50000185
51.50000216
51.50000209
51.50000167
51.50000094
51.50000045
51.50000017
52.50000031
52.50000082
52.50000172
52.50000302
52.50000372
52.50000379
52.5000032
52.50000188
52.50000089
52.50000034
53.50000051
53.50000135
53.50000283
53.50000511
53.50000645
53.50000672
53.50000579
53.50000348
53.50000164
53.50000063
54.50000083
54.5000022
54.50000461
54.5000086
54.5000111
54.50001177
54.50001031
54.50000634
54.50000299
54.50000115
55.50000133
55.50000351
55.50000742
55.50001435
55.50001893
55.50002041
55.50001816
55.5000114
55.50000542
55.50000208
56.50000206
56.50000553
56.50001197
56.50002391
56.50003205
56.50003498
56.50003145
56.50002008
56.50000968
56.50000375
57.50000325
57.50000891
57.50001986
57.50004017
57.50005405
57.50005912
57.50005326
57.50003424
57.50001674
57.50000655
58.50000548
58.50001521
58.50003434
58.50006839
58.50009092
58.50009856
58.50008806
58.50005623
58.50002773
58.50001091
59.50000993
59.50002734
59.50006114
59.50011743
59.50015238
59.50016255
59.50014277
59.50008946
59.50004404
59.50001733
60.50001846
60.50004987
60.50010916
60.50020136
60.50025326
60.50026684
60.5002293
60.50014009
60.50006829
60.5000267
61.50003373
61.50008939
61.50019186
61.50034314
61.50042416
61.50043431
61.50036842
61.50022014
61.50010614
61.50004122
62.50006021
62.50015657
62.50033094
62.50057974
62.50070729
62.50071485
62.50059922
62.50035268
62.50016914
62.50006582
63.5001071
63.50027155
63.50056637
63.50097925
63.50118572
63.50119059
63.50099188
63.50058032
63.50027935
63.50011061
64.50019531
64.50047595
64.5009773
64.50167386
64.50201854
64.50202109
64.50168045
64.50098445
64.50047978
64.50019709
65.50037546
65.5008596
65.50172721
65.50293261
65.50352688
65.50352772
65.50293471
65.50172938
65.50086046
65.50037571
66.50078344
66.50163349
66.50316728
66.5053175
66.50637313
66.50637283
66.50531651
66.50316597
66.50163146
66.50078126
67.50084018
67.50261556
67.50562041
67.51000753
67.51189807
67.511897
67.51000445
67.50561675
67.50260927
67.50083266
68.49541474
68.50064951
68.50767224
68.51925839
68.52255
68.52254743
68.51925351
68.50766665
68.50063555
68.49539562
69.52833719
69.4820029
69.48885198
69.53751059
69.54218304
69.54217079
69.53749892
69.48884299
69.48198002
69.52828289
70.50988237
70.51066792
70.56858657
70.57279526
70.57274775
70.56850497
70.51061405
70.50984537
70.27627509
71.29208147
71.53638339
71.53954613
71.54032266
71.54026076
71.53932925
71.53657862
71.31174218
71.29082868
2.565233929
2.571444402
2.571936955
2.57214308
2.572183827
2.572180367
2.572172311
2.572166421
2.572162957
2.572161077
2.572160072
2.572159519
2.5721592
2.572159002
2.572158862
2.572158731
2.572158551
2.572158234
2.57215763
2.572156515
2.572154645
2.572151931
2.572148697
2.572145479
2.57214065
2.572122222
2.572048414
2.571810588
2.571159702
2.569553415
2.570468316
2.557234204
2.575929045
2.577267832
3.413733325
3.430897238
3.443727693
3.441495907
3.441523456
3.441711255
3.441753972
3.441734909
3.441710942
3.441693154
3.441681748
3.441674872
3.441670833
3.441668474
3.441667083
3.441666228
3.441665639
3.441665117
3.44166447
3.441663439
3.441661617
3.441658336
3.441652562
3.441642756
3.441626569
3.441599614
3.441551151
3.441451842
3.44122466
3.440683812
3.439407253
3.436394801
3.43223683
3.421293459
3.383131164
3.276037504
3.314614595
3.369748768
3.443925444
3.527499254
3.576816303
4.471770046
4.470989653
4.472884233
4.472108547
4.472515053
4.472664724
4.472641748
4.472591771
4.47255128
4.472524465
4.472508029
4.472498295
4.47249262
4.472489326
4.472487385
4.472486172
4.472485273
4.472484373
4.472483133
4.472481086
4.472477468
4.472470994
4.472459485
4.472439272
4.472404035
4.472342173
4.472230514
4.472019435
4.471600358
4.470740228
4.468956744
4.465281939
4.457933196
4.437182523
4.324530459
4.269150082
4.262910224
4.291455242
4.334181926
4.360398049
4.313724154
4.400542646
4.451772371
5.484367834
5.471058094
5.469933656
5.469948643
5.469895028
5.469796161
5.469681197
5.469592203
5.46953347
5.469497602
5.46947648
5.469464229
5.469457154
5.469453054
5.469450625
5.469449078
5.469447888
5.469446637
5.469444874
5.469441952
5.469436825
5.469427715
5.46941157
5.469383157
5.469333413
5.469246269
5.469092104
5.468814167
5.468301223
5.467336121
5.465505896
5.462051552
5.455693186
5.442152345
5.415096797
5.386491166
5.370211065
5.372179877
5.38090626
5.311371765
5.292012164
5.311756641
5.289729046
5.333254129
5.464067779
5.575250641
6.485988301
6.483014874
6.48339776
6.483814364
6.483791333
6.483690851
6.483584029
6.483504016
6.483452436
6.483421629
6.4834039
6.483393842
6.483388143
6.483384876
6.483382932
6.483381638
6.483380541
6.48337925
6.483377297
6.483373984
6.483368169
6.483357894
6.483339825
6.483308281
6.483253642
6.483159543
6.482997713
6.482718134
6.482230188
6.481368336
6.479834497
6.477105689
6.472253295
6.4631412
6.4468839
6.424453572
6.408698348
6.404801055
6.404323585
6.395246435
6.384207741
6.378550465
6.308464117
6.304502236
6.339532795
6.333923073
6.421995289
7.494536654
7.494120467
7.494375399
7.49459762
7.494632754
7.494596764
7.494546075
7.494505684
7.494479466
7.494464157
7.494455699
7.494451125
7.49444864
7.494447239
7.49444637
7.4944457
7.494444978
7.494443944
7.494442232
7.49443926
7.494434043
7.494424917
7.49440907
7.494381841
7.494335651
7.494258402
7.494131028
7.493923243
7.493585408
7.493032801
7.492117413
7.49058033
7.487959325
7.483334433
7.475499905
7.464287972
7.454583489
7.448520339
7.441403627
7.426626482
7.413352656
7.405839353
7.395121877
7.384508988
7.314956239
7.308846047
7.293413022
7.392765297
7.5089911
8.502358885
8.502976037
8.50318957
8.50328297
8.503362226
8.503405505
8.503428799
8.50344117
8.503448468
8.503453313
8.503456666
8.503458932
8.503460382
8.50346124
8.503461673
8.503461777
8.503461568
8.503460972
8.503459791
8.503457652
8.503453904
8.503447447
8.503436482
8.503418164
8.503388232
8.503340807
8.503268713
8.503164671
8.503023327
8.50284345
8.502629921
8.502395467
8.502141721
8.501643041
8.500301032
8.4975817
8.493908557
8.488892336
8.480473995
8.467368656
8.454382759
8.442607573
8.426936916
8.412563293
8.399397138
8.3858168
8.320665185
8.31590439
8.302249295
8.414459044
9.509537947
9.513472483
9.514149905
9.514296561
9.51453009
9.514682243
9.514785227
9.514850108
9.514889533
9.514913198
9.51492735
9.51493577
9.514940726
9.514943589
9.514945186
9.514946
9.514946295
9.514946173
9.514945613
9.514944477
9.514942482
9.514939163
9.514933802
9.51492544
9.514913073
9.514896552
9.514879029
9.514872444
9.514908237
9.515057417
9.515470312
9.516459823
9.518627007
9.522406235
9.527310975
9.53176473
9.533547959
9.530280828
9.519776819
9.504726745
9.490756144
9.477346696
9.462293446
9.445929246
9.426075416
9.405807685
9.385000695
9.305839022
9.305984555
9.315097792
9.450878688
9.608240358
10.50983269
10.5249851
10.52784933
10.52861186
10.52895837
10.52915231
10.52928948
10.52937869
10.52943365
10.52946658
10.52948609
10.52949758
10.5295043
10.52950819
10.52951041
10.52951163
10.52951225
10.52951248
10.52951242
10.5295121
10.52951153
10.52951071
10.52950971
10.52950886
10.52950921
10.52951382
10.52953097
10.52958134
10.52971328
10.5300356
10.53079494
10.53258014
10.53692461
10.54538761
10.55757965
10.57034947
10.57886419
10.57855416
10.56442449
10.54283573
10.52481657
10.50836596
10.49330976
10.47719772
10.45720841
10.43269752
10.41314537
10.40062088
10.39723293
10.35357075
10.38122516
10.42734781
10.58002957
11.52129601
11.52499141
11.52529983
11.52691766
11.52683015
11.52679278
11.52685005
11.52690784
11.52694881
11.52697487
11.52699075
11.52700023
11.5270058
11.52700903
11.52701087
11.52701191
11.52701247
11.52701277
11.52701292
11.52701301
11.52701317
11.52701359
11.52701467
11.52701716
11.5270227
11.52703493
11.52706254
11.52712619
11.52727446
11.52762248
11.52846132
11.53062579
11.5369135
11.55061503
11.57145728
11.59449998
11.61158891
11.61517134
11.60103528
11.58036755
11.56073453
11.54079156
11.52412548
11.50710892
11.48923204
11.46905178
11.45018216
11.43257632
11.42071155
11.41424559
11.36251086
11.38171292
11.4195252
11.57812113
12.5760599
12.56533691
12.55487585
12.55792049
12.5581818
12.55809272
12.55807819
12.5581022
12.55812537
12.55814195
12.55815272
12.55815939
12.5581634
12.55816576
12.55816713
12.55816792
12.55816838
12.55816866
12.55816884
12.55816902
12.55816931
12.55816988
12.55817105
12.55817344
12.55817825
12.55818814
12.55820896
12.55825387
12.5583523
12.55857426
12.5591143
12.56062745
12.56793869
12.58796586
12.62096594
12.66229277
12.70246842
12.72003344
12.69448288
12.60800336
12.59051756
12.57444181
12.55876458
12.54019737
12.52164645
12.50135897
12.48235586
12.46282611
12.44230725
12.42790863
12.41994376
12.36531334
12.38373295
12.42217842
12.59333936
13.28745911
13.28210018
13.4336245
13.42818663
13.42793667
13.42781034
13.42778925
13.42779367
13.42779919
13.42780322
13.42780588
13.42780753
13.42780853
13.42780911
13.42780945
13.42780964
13.42780975
13.42780982
13.42780987
13.42780991
13.42780999
13.42781013
13.42781046
13.42781121
13.42781297
13.42781705
13.42782602
13.42784394
13.42787546
13.42792559
13.42802289
13.42841611
13.43600688
13.46222714
13.50944799
13.57291255
13.64526918
13.71690743
13.66184335
13.68083921
13.67500243
13.60336634
13.59144893
13.57686391
13.55779238
13.5330827
13.51122354
13.49109227
13.46917305
13.44652818
13.43133356
13.4231093
13.36936288
13.38562898
13.39495307
14.46298841
14.50770695
14.64390882
14.69812548
14.68186423
14.68086917
14.61007863
14.59118188
14.56553139
14.54182493
14.51995017
14.49614335
14.47185871
14.44867174
14.43377626
14.42549789
14.37258288
14.37304964
14.46784638
15.55647086
15.6528311
15.72113802
15.70354331
15.68774993
15.59610193
15.57449622
15.55176625
15.52301752
15.49609004
15.47181985
15.44974237
15.43506754
15.42352754
15.38344036
15.36827674
15.53328913
16.61241247
16.70822191
16.68100052
16.66704495
16.59421869
16.57286132
16.54680571
16.51698067
16.49227184
16.46995847
16.4489385
16.43028846
16.34911104
16.35548094
16.37056608
17.51757711
17.63413353
17.64951223
17.65353306
17.58467313
17.55965848
17.53311008
17.50880516
17.48721923
17.4657052
17.44393892
17.42372679
17.3655733
17.37346625
17.48440715
18.46749451
18.61030725
18.64234614
18.64966318
18.57610126
18.55067978
18.52496982
18.50146649
18.47929569
18.45552794
18.43883255
18.43013847
18.40274667
18.40378458
18.58979126
19.46050661
19.61667606
19.65287024
19.65515728
19.56684153
19.54040043
19.51465227
19.49304863
19.47282309
19.45483737
19.44295416
19.3758405
19.4223803
19.4603061
20.48655844
20.635076
20.61930432
20.57154346
20.54667049
20.52406246
20.50402354
20.48686379
20.47078163
20.45657706
20.44421075
20.40927389
20.3774495
21.53778101
21.63597334
21.6298373
21.55293937
21.53311221
21.51321488
21.49658093
21.48121484
21.46525004
21.45299629
21.38559975
21.39519053
21.53860695
22.62444986
22.59316569
22.55434255
22.53656844
22.51994918
22.50420447
22.49037771
22.47687364
22.465322
22.45537275
22.46151965
22.44691928
23.48509929
23.61264809
23.61294867
23.54283397
23.52828211
23.51152883
23.49702127
23.48340918
23.46986094
23.45894931
23.4191311
23.40385239
23.60003531
24.614659
24.5801154
24.5457194
24.53212974
24.51750908
24.50253532
24.48850547
24.47371123
24.46420558
24.39829069
24.45188832
24.50626849
25.5207596
25.56521219
25.61113886
25.53918475
25.52511597
25.50810449
25.49490356
25.48405829
25.47709437
25.47292891