/*--------------------------------*- C++ -*----------------------------------*\
| =========                 |                                                 |
| \\      /  F ield         | OpenFOAM: The Open Source CFD Toolbox           |
|  \\    /   O peration     | Version:  4.1                                   |
|   \\  /    A nd           | Web:      www.OpenFOAM.org                      |
|    \\/     M anipulation  |                                                 |
\*---------------------------------------------------------------------------*/
FoamFile
{
    version     2.0;
    format      ascii;
    class       volScalarField;
    location    "2";
    object      p;
}
// * * * * * * * * * * * * * * * * * * * * * * * * * * * * * * * * * * * * * //

dimensions      [0 2 -2 0 0 0 0];

internalField   nonuniform List<scalar> 
24850
(
-0.1834328565
-0.2071506482
-0.2001402074
-0.1928427548
-0.1944605029
-0.1948426496
-0.1942905649
-0.1941074192
-0.1940990106
-0.1940197407
-0.1938909893
-0.1937602206
-0.1936039431
-0.1934011962
-0.19314324
-0.1928158145
-0.192399132
-0.1918694508
-0.1911969295
-0.190343572
-0.1892612769
-0.1878891138
-0.186149676
-0.1839443458
-0.1811462274
-0.1775920747
-0.1730550423
-0.1672501955
-0.1595443102
-0.1494777235
-0.1336655666
-0.1266080575
-0.1154592928
-0.1124285477
-0.1818610623
-0.1971365185
-0.2002966972
-0.1958893933
-0.191516336
-0.1925507969
-0.1947659203
-0.1945460874
-0.1941298015
-0.1941556426
-0.194172669
-0.1941346774
-0.1940755156
-0.1940165411
-0.1939375104
-0.1938246128
-0.1936759282
-0.1934836255
-0.1932349703
-0.1929145226
-0.1925025566
-0.1919735076
-0.1912944495
-0.1904229595
-0.1893043879
-0.1878682326
-0.1860227967
-0.1836483334
-0.1805776129
-0.1765935435
-0.1712950434
-0.1643751427
-0.1550892252
-0.1480135988
-0.1388159141
-0.1304167763
-0.1204503375
-0.125147663
-0.1114156727
-0.1073342256
-0.187238111
-0.2009701417
-0.1984334419
-0.1923429733
-0.1906577646
-0.193685685
-0.1950465609
-0.1946210024
-0.1942555619
-0.1943232154
-0.1943513002
-0.1943087191
-0.1942785196
-0.1942627627
-0.1942351555
-0.1941930884
-0.1941362934
-0.1940597354
-0.1939565598
-0.1938186528
-0.1936353831
-0.1933926465
-0.1930719373
-0.1926490766
-0.192092456
-0.1913608812
-0.1904007459
-0.1891425615
-0.187492223
-0.1853301347
-0.182440448
-0.1786824194
-0.1736393651
-0.1684009675
-0.1629899176
-0.1563731337
-0.1516819754
-0.1480223662
-0.1372619698
-0.1269011457
-0.1150234011
-0.1116968494
-0.1102183574
-0.1877444958
-0.2010391411
-0.1984711556
-0.1923997149
-0.1907120487
-0.1937286174
-0.1950957832
-0.1946923359
-0.1943376869
-0.1944216705
-0.1944786419
-0.1944789949
-0.1944939912
-0.1945321396
-0.1945731526
-0.1946165497
-0.1946671834
-0.194725595
-0.194791803
-0.1948664308
-0.1949497863
-0.1950415015
-0.1951403454
-0.1952438342
-0.1953477864
-0.1954460326
-0.1955306797
-0.195593356
-0.19563086
-0.1956550713
-0.1957254549
-0.195951271
-0.1964692006
-0.19594895
-0.1928505753
-0.1867684534
-0.1826449512
-0.1781698994
-0.1678960266
-0.1534717338
-0.1459286554
-0.1330652873
-0.1269253505
-0.1054649082
-0.1173863339
-0.1852150132
-0.1971833273
-0.2003539731
-0.1959775036
-0.1916203281
-0.1926847437
-0.194935926
-0.1947387078
-0.1943611657
-0.1944532589
-0.1945466127
-0.1946044454
-0.1946637362
-0.1947566023
-0.1948649092
-0.1949866275
-0.1951329337
-0.1953110744
-0.1955275857
-0.1957911413
-0.1961122336
-0.1965032956
-0.1969792863
-0.1975583583
-0.1982628489
-0.1991209611
-0.2001702758
-0.2014640843
-0.2030914554
-0.2052047565
-0.2081526961
-0.2124161199
-0.2188318511
-0.2227151068
-0.2215325166
-0.2168131631
-0.2119286012
-0.2079184688
-0.199497169
-0.184764261
-0.1736508897
-0.1598383397
-0.1477588588
-0.1368437192
-0.1283207497
-0.1099655459
-0.183406583
-0.2072949854
-0.2003307853
-0.1930658619
-0.1947364803
-0.1951669281
-0.1947014325
-0.1946360459
-0.1947473417
-0.1948358687
-0.1949316611
-0.1950593908
-0.1952247729
-0.1954317625
-0.1956891122
-0.1960084672
-0.1964039395
-0.196893587
-0.1975000482
-0.1982514395
-0.1991827356
-0.2003377167
-0.2017718257
-0.2035564559
-0.2057864983
-0.2085920574
-0.2121713602
-0.2168311845
-0.2232610202
-0.2327213637
-0.2486158631
-0.260964319
-0.2636055308
-0.2582365432
-0.259196657
-0.2613987732
-0.2365962509
-0.2210988477
-0.2064334241
-0.1919136164
-0.170880098
-0.1593745452
-0.1426585159
-0.1286419154
-0.117805186
-0.1223989006
-0.2608791031
-0.2725542024
-0.2404277131
-0.2241900118
-0.2010383525
-0.1850790914
-0.1612001617
-0.1411569578
-0.1327957646
-0.1157561895
-0.09745062008
-0.2626378369
-0.2770714061
-0.2340139098
-0.2115959878
-0.18439344
-0.1586469553
-0.1380726049
-0.1172594571
-0.0928122299
-0.07956196432
-0.256067419
-0.2585175022
-0.208180364
-0.1779486958
-0.1511096311
-0.1189191516
-0.09003402899
-0.06247030434
-0.03747691503
-0.2236304185
-0.2042414586
-0.1690357689
-0.1293576968
-0.09156961391
-0.05408094986
-0.01771418107
0.01895868013
-0.2199028031
-0.1988571534
-0.1424653787
-0.09942296202
-0.05383505768
-0.007819503766
0.03265751975
0.07836963715
-0.152848495
-0.1266428409
-0.06862465333
-0.01370692284
0.03825399936
0.08320823717
0.1247267168
-0.1336503434
-0.0887493972
-0.03525790182
0.01831083323
0.06306399195
0.1040362269
-0.1730718873
-0.1170979905
-0.05916464451
-0.003551377885
0.05285815574
0.1076676444
0.150402496
-0.122328605
-0.0863034478
-0.02661073587
0.03352035139
0.09258744852
0.1380073226
0.177068864
-0.0978047713
-0.05068218901
0.002327298657
0.05737191285
0.1025945324
0.1393717269
-0.1664725066
-0.090259539
-0.03132054581
0.031097434
0.09088791195
0.1482480151
0.1901313143
-0.09575140768
-0.04720932004
0.01041235792
0.06059519577
0.1138477492
0.1456415778
-0.171672188
-0.08034883881
-0.01741262866
0.03696330807
0.09513758761
0.1336152171
-0.08411895805
-0.03572544384
0.02016513811
0.07617440818
0.1373613282
0.1771454279
-0.1484032359
-0.05568222945
0.005834647581
0.05548569241
0.105591826
0.1393184682
-0.07165407975
-0.01744692813
0.03952859406
0.09102437963
0.1277628258
-0.1222379163
-0.03582740649
0.02253655122
0.07213508191
0.1137414565
-0.1165635131
-0.03953953523
0.01255538474
0.06232218798
0.1216839155
0.1577927814
-0.1087452354
-0.04394921561
0.005996324483
0.04820354695
0.09288513279
0.1237525195
-0.1088724897
-0.04931856067
-0.002579867744
0.03562533708
0.0743648627
0.1071956609
-0.1000949133
-0.04652714625
-0.006116965531
0.02843861961
0.06072156844
0.09435744845
-0.07843749584
-0.03641513043
-0.005216082412
0.0234079962
0.04956306043
0.07777467424
-0.05239826559
-0.02559097637
-0.00357019543
0.01700532412
0.0365865165
0.05568474478
-0.03848665984
-0.01997023313
-0.003457208195
0.01146620275
0.02645671097
0.04076513458
-0.03142738756
-0.01729206144
-0.004095969437
0.007594758582
0.01967592406
0.03120079797
-0.02622422418
-0.01513964219
-0.004534766644
0.004876272056
0.01467784098
0.02396577691
-0.0217702754
-0.01309221051
-0.004660248252
0.002832648742
0.01068316069
0.01811170667
-0.01815474047
-0.01135451144
-0.004673752005
0.00124993735
0.007518255576
0.01346311189
-0.01532047635
-0.009969135133
-0.004665214564
2.936405827e-05
0.005051986245
0.009817009255
-0.0130731962
-0.008851226086
-0.004631139211
-0.0009000668485
0.003129587036
0.006946868314
-0.01126572807
-0.007929873303
-0.004569966136
-0.001605474478
0.001623741583
0.004678029972
-0.00981229455
-0.007171675008
-0.004494577655
-0.00213985403
0.000441333484
0.002883272021
-0.008648328138
-0.006553582696
-0.004413206964
-0.002545695497
-0.0004879992462
0.001464768077
-0.007718323524
-0.006056259021
-0.004351106322
-0.002864986425
-0.001222534583
0.0003411757811
-0.006976518954
-0.005658462007
-0.00430843699
-0.00312379574
-0.001807165842
-0.0005537216401
-0.006383360572
-0.005337700274
-0.004267777756
-0.00332364051
-0.00226974176
-0.001267147683
-0.005908416135
-0.005078833224
-0.004228249715
-0.00347613522
-0.002634940243
-0.001835552258
-0.005529836955
-0.004872104591
-0.00419475416
-0.003595987411
-0.002925408049
-0.002289201087
-0.005230037987
-0.004708754944
-0.004169125697
-0.003692679343
-0.0031582378
-0.002652047518
-0.004993883848
-0.004580587733
-0.004150704464
-0.00377162485
-0.003345693539
-0.002942812096
-0.004808791181
-0.004480867543
-0.004138490203
-0.003836794725
-0.003497320319
-0.003176517513
-0.00466463056
-0.004404287478
-0.004131706347
-0.003891461341
-0.00362080149
-0.0033652205
-0.004553444798
-0.004346661652
-0.004129703253
-0.003938187605
-0.003722197504
-0.00351834646
-0.004468695743
-0.004304259646
-0.004131935796
-0.003979025654
-0.003806300441
-0.003643482662
-0.004405718764
-0.004274869441
-0.004137979859
-0.004015394245
-0.003876745072
-0.003746150225
-0.004360045886
-0.004255116749
-0.004147270176
-0.004048874248
-0.003936912418
-0.003831809506
-0.004328436185
-0.004244242855
-0.004158932602
-0.004079386589
-0.003988684493
-0.003904195945
-0.004308387027
-0.004240390768
-0.004172058459
-0.004107349614
-0.004034768978
-0.003966833333
-0.004298975428
-0.004241734146
-0.00418337643
-0.004132014411
-0.004077374872
-0.004024617071
-0.004297323065
-0.004250057142
-0.004196968179
-0.004152817432
-0.004120020452
-0.004081109052
-0.004310258739
-0.00427192753
-0.004223279374
-0.004189854512
-0.00417144206
-0.004143101643
-0.004339844448
-0.004311030008
-0.004271830789
-0.004246958215
-0.004233996503
-0.004214871597
-0.004397173751
-0.004373350324
-0.004330417692
-0.004311233772
-0.004311575322
-0.004301979757
-0.004501798852
-0.00447314128
-0.00439753557
-0.00438340591
-0.004419466698
-0.004426362565
-0.004753539797
-0.004641672682
-0.004510580378
-0.004497986239
-0.004596347683
-0.004688035577
-0.005200296097
-0.004849674852
-0.004602402646
-0.004580947789
-0.004808733139
-0.005123110887
-0.006800438835
-0.00502085753
-0.004827197515
-0.004787506704
-0.004962225559
-0.006716576959
-0.006656448979
-0.003786073513
-0.004394628523
-0.004351090535
-0.003634339204
-0.006567315434
-0.01371248821
-0.000891104178
-0.003978601708
-0.003964094836
-0.0006221146557
-0.01350422339
0.00366249357
-0.003222813948
-0.003355251391
0.004314057596
0.01894333114
0.01351917016
0.008996761385
0.01673628955
-0.1881693962
-0.2017472568
-0.1954625984
-0.1928131919
-0.1946515299
-0.1947802158
-0.1942369699
-0.1940375636
-0.1938707766
-0.1936889348
-0.1934929448
-0.1932670302
-0.1929837728
-0.1926251032
-0.1921735159
-0.1916043262
-0.1908866648
-0.1899828154
-0.1888457204
-0.1874165181
-0.1856217775
-0.1833699094
-0.180546509
-0.1770082039
-0.1725739114
-0.167010808
-0.1600147635
-0.1511135994
-0.1397449453
-0.1236996052
-0.1051308842
-0.08869923193
-0.07628802071
-0.1824777645
-0.1963347073
-0.1961876444
-0.196427539
-0.1934270524
-0.1937800533
-0.1947013891
-0.1945794625
-0.1941211542
-0.1939743648
-0.1939240877
-0.1937909828
-0.1936390148
-0.1934649311
-0.1932376116
-0.1929447224
-0.1925738374
-0.1921044701
-0.1915106311
-0.1907603824
-0.1898135211
-0.1886194714
-0.18711477
-0.1852197255
-0.1828340922
-0.1798313387
-0.1760503956
-0.1712832382
-0.1652534109
-0.1575666875
-0.147716823
-0.1346758227
-0.1195642972
-0.1049250511
-0.08853669341
-0.07615582594
-0.08796377529
-0.07374834226
-0.06150345091
-0.055972325
-0.1792583629
-0.1935521842
-0.1987670948
-0.1964848067
-0.1915084561
-0.1929508108
-0.194955205
-0.1949415021
-0.1943207128
-0.194143218
-0.1940795255
-0.1939621826
-0.1938132412
-0.1936543613
-0.19346542
-0.1932260863
-0.1929237911
-0.1925412748
-0.1920561717
-0.1914415884
-0.1906638138
-0.1896801955
-0.1884370711
-0.1868669094
-0.1848845467
-0.182382335
-0.1792231126
-0.175231458
-0.1701704272
-0.163745272
-0.155552921
-0.1453960277
-0.1331569214
-0.1231550845
-0.1127163875
-0.1040718057
-0.09986229561
-0.09324345379
-0.08315519326
-0.07550572376
-0.07416442837
-0.07258008938
-0.06049423257
-0.1783534268
-0.1928939683
-0.204732444
-0.1969774575
-0.1897743096
-0.1926764957
-0.1949844064
-0.1944084014
-0.1939228413
-0.1940771153
-0.1941320516
-0.194075622
-0.1940032498
-0.1939281508
-0.1938267452
-0.1936857468
-0.193502199
-0.1932666869
-0.192964583
-0.1925779581
-0.1920841377
-0.1914541071
-0.1906509272
-0.1896276146
-0.1883244004
-0.1866651633
-0.1845529401
-0.1818643455
-0.1784396521
-0.1741127368
-0.1686787021
-0.1621087348
-0.1545345913
-0.1471129448
-0.1389661365
-0.1294632716
-0.1208308552
-0.1153709183
-0.1068078939
-0.09781781136
-0.09286021199
-0.08722340035
-0.08002221483
-0.07719114513
-0.07663319626
-0.1778893664
-0.1922357873
-0.2059322408
-0.1961280887
-0.1893488192
-0.1926955971
-0.1952281463
-0.1946444998
-0.1941553651
-0.1942914486
-0.1943460979
-0.1942946302
-0.194263912
-0.1942445185
-0.1942132966
-0.1941661682
-0.194103155
-0.1940190847
-0.1939067245
-0.1937576161
-0.1935608485
-0.1933020427
-0.1929624179
-0.1925175855
-0.1919359492
-0.1911766186
-0.1901874195
-0.1889001585
-0.1872310202
-0.1850865894
-0.1823860117
-0.1789768013
-0.1748019123
-0.1699305867
-0.16424992
-0.1574773364
-0.1493429959
-0.1411920539
-0.1328363334
-0.1236502418
-0.115426855
-0.1076793672
-0.1009464326
-0.09115100098
-0.08822158154
-0.08257502926
-0.09574018469
-0.1778473779
-0.192289063
-0.2059979519
-0.1961654713
-0.189390564
-0.1927372256
-0.1952908043
-0.1947189666
-0.1942478625
-0.194406791
-0.1944981913
-0.1944915889
-0.1945080568
-0.1945517399
-0.1945980297
-0.1946483359
-0.1947079596
-0.1947776979
-0.1948583069
-0.1949513997
-0.1950585403
-0.1951809845
-0.1953196132
-0.1954747261
-0.1956458012
-0.1958313298
-0.1960290459
-0.1962361993
-0.1964512658
-0.1966703851
-0.1968736313
-0.1969546667
-0.1966648087
-0.1954777226
-0.1924818692
-0.1878187832
-0.1825113996
-0.1758212309
-0.1658463643
-0.154529877
-0.1428306743
-0.1307154022
-0.1202833934
-0.1120219988
-0.1077027402
-0.1043056994
-0.1051829252
-0.1013910371
-0.1782590902
-0.1927201079
-0.2046202679
-0.1969947618
-0.1899022197
-0.1928329234
-0.1951663991
-0.1946534016
-0.1942202819
-0.1944507862
-0.19459561
-0.1946548355
-0.194733594
-0.1948504659
-0.1949824738
-0.1951341765
-0.1953187299
-0.1955450087
-0.195822347
-0.1961628978
-0.1965814942
-0.1970961207
-0.1977288471
-0.1985069305
-0.1994643458
-0.2006441155
-0.202102213
-0.2039130264
-0.2061790457
-0.2090277185
-0.2125951066
-0.216845024
-0.2213192864
-0.2243339834
-0.2243280943
-0.2215246408
-0.2168246033
-0.2096357729
-0.1983362824
-0.1861778911
-0.1732131866
-0.1599863484
-0.1475321424
-0.1360542135
-0.1236387952
-0.1148485613
-0.1077587729
-0.1133982765
-0.1154566874
-0.1436163212
-0.1795438949
-0.1938267493
-0.1990034234
-0.1966445556
-0.1917141595
-0.1932264576
-0.1952782218
-0.1953302943
-0.1948204235
-0.1947647578
-0.1948473366
-0.1949229183
-0.1950358863
-0.1951821058
-0.1953737503
-0.1956175017
-0.1959224942
-0.1963022486
-0.1967743408
-0.1973612869
-0.1980914586
-0.1990003903
-0.2001328114
-0.2015454231
-0.2033108184
-0.2055233671
-0.2083091385
-0.2118411664
-0.2163733079
-0.2222708423
-0.2301057613
-0.2403133353
-0.2528947551
-0.2632626531
-0.2677910653
-0.2669203407
-0.2646881645
-0.2597250014
-0.2434381479
-0.2234441869
-0.2071668094
-0.1908292762
-0.1739606052
-0.1581134886
-0.1435465575
-0.1293329902
-0.120758111
-0.1196978998
-0.1202995791
-0.1287204745
-0.1366956283
-0.1816377214
-0.196468088
-0.1963102345
-0.1965615621
-0.1936629783
-0.1941259223
-0.1951094394
-0.1950688994
-0.194620834
-0.1947130526
-0.1948744209
-0.1950010501
-0.1951551802
-0.1953547199
-0.1956018381
-0.1959080128
-0.1962894653
-0.1967650217
-0.1973580414
-0.1980981228
-0.1990225971
-0.2001786096
-0.2016260537
-0.2034416187
-0.2057246639
-0.2086060984
-0.2122635785
-0.216945425
-0.2230280429
-0.2310781375
-0.2421178971
-0.2573490813
-0.2785279307
-0.2966508818
-0.304295151
-0.3033305731
-0.3051573024
-0.2983116455
-0.2817047188
-0.266865695
-0.2484781233
-0.2257792059
-0.2028458926
-0.182496448
-0.1634075232
-0.1450469471
-0.1301624956
-0.1189885778
-0.110096321
-0.1115302031
-0.1180736723
-0.1285444031
-0.1796156201
-0.196821442
-0.1882781636
-0.2019060837
-0.1957646218
-0.193232885
-0.1951405677
-0.1953830126
-0.195039081
-0.1949778276
-0.195035839
-0.1951697171
-0.195345587
-0.1955783529
-0.1958760944
-0.1962500965
-0.1967188118
-0.1973054421
-0.1980393795
-0.1989582172
-0.200109631
-0.2015541868
-0.2033692315
-0.2056542984
-0.2085389318
-0.212194397
-0.2168534689
-0.2228408436
-0.2306495708
-0.2410444051
-0.2556371953
-0.2773772471
-0.3137512666
-0.344369011
-0.3555946616
-0.359177675
-0.3596486144
-0.3702814084
-0.3439330713
-0.3105311462
-0.288546725
-0.2689630571
-0.2415516235
-0.2104295616
-0.1841764213
-0.1599752014
-0.1374190064
-0.1191733207
-0.1017339312
-0.08763550083
-0.07888107689
-0.07717800792
-0.06806120281
-0.3595093526
-0.3727409407
-0.355534888
-0.3120829738
-0.2788965157
-0.2506598008
-0.2151801719
-0.1790608124
-0.1499683222
-0.1213898639
-0.09457063686
-0.06709583498
-0.04247449479
-0.02093854869
0.0007313207578
0.03444682112
-0.3719584622
-0.3657369751
-0.3391620107
-0.2846531243
-0.2472628473
-0.2078601487
-0.1641011373
-0.1267382063
-0.09121714406
-0.05557718478
-0.01795807451
0.01861532067
0.05602816914
0.09033549166
0.1374927307
-0.355091196
-0.3409926944
-0.2922159574
-0.2439974819
-0.1985775974
-0.1511058233
-0.09801722153
-0.05321787326
-0.009851251285
0.03587087397
0.08140572809
0.1225239084
0.1538654886
-0.3189779223
-0.2908285671
-0.2306919828
-0.1805180669
-0.1227917558
-0.06311222581
-0.01403739872
0.03570927807
0.08694579894
0.1359433628
0.1743642638
0.219043732
-0.3110724753
-0.2688035178
-0.2086372642
-0.145406776
-0.08308773604
-0.03072457676
0.02187725105
0.07189356732
0.1275403124
0.1765638021
0.2138594066
0.2594608501
-0.3016097185
-0.2522639217
-0.1908367446
-0.1218422211
-0.05333152477
0.001882176514
0.0562039167
0.112919961
0.1635833899
0.2025549146
0.2281472727
-0.2911145229
-0.2351577302
-0.1624408811
-0.09390313499
-0.02412744659
0.03292268089
0.08509468422
0.1413953041
0.1884765885
0.2242029715
0.2700307663
-0.2500486748
-0.1974675978
-0.1230139611
-0.0495039473
0.005932329654
0.05811946967
0.1093206508
0.1654781215
0.2125542161
0.2360255077
-0.3171703758
-0.2328407885
-0.1714420119
-0.09620135085
-0.02434371756
0.03287257964
0.08795930915
0.145336764
0.192024892
0.2257152813
0.2690495815
-0.2646343385
-0.1998683917
-0.1242043806
-0.05039198335
0.009191652713
0.06380939477
0.1136576055
0.1671179136
0.2134933755
0.2449032496
-0.3364298823
-0.2281765905
-0.1688538551
-0.09116974853
-0.01645417204
0.03991005997
0.09325941594
0.1497656307
0.1925053932
0.2129525477
-0.2577706541
-0.1879162474
-0.1133102446
-0.03928437256
0.01897862139
0.07457551926
0.1328691318
0.1776581279
0.2154948778
0.2520959108
-0.3241478365
-0.2034361619
-0.147632769
-0.07091324431
0.001174929943
0.05509378611
0.105145897
0.1571989046
0.200997338
0.2308953772
-0.2275976708
-0.1640705063
-0.09117772855
-0.01627539589
0.03764127907
0.08825284105
0.1388303521
0.1807116899
0.2081993471
-0.285870334
-0.1763057932
-0.1083577002
-0.0295858629
0.02295604815
0.07417279729
0.1270113995
0.1648241038
0.1983904911
-0.2816462464
-0.1765654038
-0.1123737425
-0.03748170233
0.01272904414
0.06105641403
0.1136162841
0.1491724289
0.1728452825
-0.2536275188
-0.1679689181
-0.1096675711
-0.0440883116
0.005135033545
0.04758234842
0.08790358237
0.1332929312
0.1774478517
0.2136159919
-0.233968776
-0.1612761067
-0.1068807725
-0.04929658312
-0.002419109815
0.03653098534
0.07299661331
0.1131696403
0.1473558314
0.1722799001
-0.2098129026
-0.1445484881
-0.09809709345
-0.04836711074
-0.006737226342
0.02795942386
0.06189632398
0.09383984872
0.1192364365
0.1410839906
-0.1605489857
-0.1141903996
-0.08102665656
-0.04178340788
-0.007579117061
0.02165882545
0.0511470952
0.07747671358
0.09920689079
0.1253739097
-0.105132016
-0.08160512302
-0.06081343691
-0.03325981945
-0.00682940324
0.01617168856
0.04006856475
0.06112633718
0.07732434084
0.09165059076
-0.07646483811
-0.06106588052
-0.04627314366
-0.02660898384
-0.006254509497
0.01177310028
0.03037247188
0.04607214713
0.05827863247
0.06760843227
-0.06144381552
-0.04929808444
-0.03730331697
-0.02211472864
-0.006144593943
0.00838756164
0.02288448346
0.0352961908
0.04486632201
0.05269566509
-0.04973460992
-0.0404013531
-0.03075767218
-0.01876917873
-0.006132103947
0.005638590939
0.01718626359
0.02731547064
0.03508176581
0.04158804081
-0.03996374312
-0.03289581738
-0.0253480677
-0.01595844053
-0.005961859901
0.003491887512
0.0127233399
0.02088603277
0.02716176836
0.03235509534
-0.03234771422
-0.02688579894
-0.02096595555
-0.01360288685
-0.00570305775
0.001835041954
0.009188349254
0.01571900563
0.02076574439
0.0249343233
-0.02646705939
-0.0222023245
-0.01752505326
-0.01171313166
-0.005461597749
0.0005395323661
0.006405094848
0.01164160442
0.01570562717
0.01907721773
-0.0218368027
-0.0185068428
-0.01480856496
-0.01020877065
-0.005250519645
-0.0004677026835
0.004222019513
0.008423621436
0.01169255165
0.01440943581
-0.01816312285
-0.01555865188
-0.01263508615
-0.008993999905
-0.005056793935
-0.001244159281
0.002505438958
0.005870563248
0.008494210077
0.01067760443
-0.01525126308
-0.01320733399
-0.01089367962
-0.008009340883
-0.004881288366
-0.001843473666
0.001151621631
0.003843123873
0.005946745676
0.007700385236
-0.01294350636
-0.01133550154
-0.009502712892
-0.007215281277
-0.004728453561
-0.002308904848
8.199063921e-05
0.002234256405
0.003919380101
0.005326590812
-0.01111252806
-0.009845432366
-0.008393179434
-0.006578111903
-0.004600952981
-0.002673911047
-0.0007653393541
0.0009559590818
0.002304549735
0.003432714722
-0.009659080102
-0.008659441992
-0.007508680515
-0.006067978144
-0.004496872903
-0.00296283049
-0.001438447625
-6.218093798e-05
0.001016772989
0.001920771394
-0.00850522642
-0.007715762492
-0.006803288353
-0.005659331685
-0.004411068239
-0.003190129056
-0.001973117238
-0.0008736680055
-1.062637414e-05
0.0007132346048
-0.007589455757
-0.00696532332
-0.006240985557
-0.005332502447
-0.004340571244
-0.00336889365
-0.002398069073
-0.001520614341
-0.0008305992199
-0.0002515750697
-0.006863341979
-0.006369489466
-0.005794044456
-0.00507253045
-0.004284127928
-0.003510821416
-0.002736926687
-0.002037142057
-0.001485683307
-0.001022915384
-0.006288501642
-0.005897450405
-0.005440146933
-0.004867064485
-0.004240341761
-0.003624857708
-0.003008240957
-0.002450337157
-0.002009758866
-0.001640119455
-0.005834244236
-0.005524384868
-0.005160926405
-0.004705641745
-0.004207379094
-0.003717487432
-0.003226288512
-0.002781533994
-0.002429701402
-0.00213458859
-0.005476077956
-0.005230416066
-0.004941513672
-0.004579674489
-0.00418348398
-0.003793534209
-0.00340225875
-0.003047720388
-0.002766917238
-0.002531401081
-0.005194492044
-0.004999663066
-0.004770014651
-0.004482314955
-0.004167201531
-0.003856761605
-0.003545076711
-0.00326246179
-0.00303843811
-0.002850559757
-0.004974044395
-0.004819481615
-0.004636911742
-0.004408039389
-0.004157344661
-0.00391015285
-0.003661773048
-0.00343644858
-0.003257875885
-0.003108051593
-0.004802389322
-0.004679780128
-0.004534667576
-0.004352326753
-0.004152821675
-0.00395598527
-0.003758054266
-0.003578314308
-0.003435967711
-0.003316586013
-0.004669960545
-0.004572603005
-0.004457135044
-0.004311725006
-0.004152917333
-0.003996029006
-0.003838069012
-0.003694693143
-0.003581524504
-0.003486421635
-0.004569026576
-0.004491698299
-0.004399837084
-0.004283093422
-0.004156709752
-0.004031728443
-0.00390591567
-0.003791311948
-0.003701409578
-0.00362584033
-0.004493818701
-0.004432331621
-0.004358460392
-0.004264607563
-0.004164034205
-0.004063819548
-0.003963770124
-0.003872936447
-0.003802058181
-0.003741831035
-0.004440215544
-0.0043908225
-0.004331323255
-0.004255159966
-0.004173924889
-0.004093581511
-0.004014147066
-0.003943064888
-0.003888084585
-0.003840801653
-0.004405412653
-0.004365809687
-0.004317183364
-0.004253025628
-0.004186104064
-0.004122405698
-0.004060562576
-0.004006654037
-0.003964751318
-0.003928054233
-0.00438894399
-0.004355966548
-0.004314353932
-0.004259432554
-0.004202945671
-0.004151825847
-0.004105827761
-0.004067746146
-0.00403816433
-0.004010100543
-0.004392145528
-0.004363275425
-0.00432591077
-0.004277164756
-0.00422666192
-0.004185549107
-0.004154227124
-0.004131657219
-0.004114429154
-0.00409413121
-0.004421980864
-0.004394588168
-0.004353716322
-0.004306911352
-0.00425785417
-0.004225827633
-0.004208406249
-0.004204338455
-0.004200243383
-0.004188766728
-0.004484611005
-0.004457816637
-0.004403434652
-0.004352564361
-0.004292069079
-0.004267611328
-0.004270831987
-0.004286233644
-0.004306156183
-0.004301351039
-0.004617692779
-0.004569591317
-0.004502199235
-0.004411636249
-0.004323153455
-0.004305303545
-0.004344440614
-0.004405826526
-0.004451520246
-0.004473717479
-0.004826122237
-0.00476118826
-0.004653884573
-0.004475607429
-0.00433826351
-0.004323258283
-0.004422605933
-0.004566476312
-0.004673198743
-0.004710285578
-0.005419871528
-0.004917715071
-0.004951161729
-0.004442625928
-0.004299080629
-0.004278680122
-0.004407310178
-0.004850659933
-0.004859754502
-0.005319824452
-0.006561058253
-0.005222404992
-0.005341697281
-0.004300301787
-0.004163444126
-0.004127461863
-0.004214220177
-0.005266802007
-0.005156887825
-0.006452408089
-0.007781677327
-0.003658139901
-0.005570041215
-0.003457607321
-0.00380949781
-0.003817818159
-0.003275812402
-0.005493310008
-0.003530354404
-0.007782942318
-0.01332552957
-0.001380961878
-0.006957827028
-0.002761807154
-0.003361249386
-0.003343555963
-0.002563044601
-0.006920726483
-0.001188095877
-0.01342414045
0.00523120018
-0.003072639397
0.0001678368126
-0.002553745832
-0.002698643123
0.0005581314113
-0.003251972448
0.005611949524
0.01541468911
0.003999641072
-0.004019015599
-0.0002468885283
-0.0004631096672
-0.0005103998138
0.0001104655012
-0.004418677149
0.01887027393
0.004895247822
-0.194135265
-0.2053085868
-0.196409862
-0.1923326498
-0.1943899971
-0.1944876988
-0.1939249329
-0.1938415132
-0.1937132279
-0.193504293
-0.1932687829
-0.1929918583
-0.1926402691
-0.1921958078
-0.1916374372
-0.1909355912
-0.1900535126
-0.1889461533
-0.1875575841
-0.1858183406
-0.1836423697
-0.1809231527
-0.1775287149
-0.1732954921
-0.1680175473
-0.1614402978
-0.153199281
-0.1429026303
-0.1293407364
-0.1124991482
-0.08588171346
-0.07301324469
-0.05674617602
-0.05002360787
-0.1773503431
-0.1923403326
-0.2038765337
-0.1986499908
-0.193303245
-0.1941962644
-0.1952019
-0.1945381109
-0.1940526009
-0.193948524
-0.193801323
-0.1936075611
-0.1933898132
-0.1931396355
-0.1928251397
-0.1924271454
-0.1919266016
-0.1912965805
-0.1905034535
-0.1895061223
-0.188253497
-0.1866819184
-0.1847122597
-0.182246267
-0.1791618835
-0.175307308
-0.170492121
-0.1644767448
-0.1569433851
-0.1474936736
-0.1355567115
-0.1208951794
-0.1044627326
-0.09013497322
-0.07651766497
-0.0634543486
-0.05563699052
-0.05391692578
-0.05108210264
-0.03877627795
-0.04529782674
-0.179341149
-0.1950495274
-0.2057981918
-0.1963420179
-0.1903140525
-0.1930029686
-0.1946986533
-0.1940137808
-0.1936523304
-0.1938128556
-0.1938014876
-0.1936877413
-0.1935335731
-0.193343224
-0.1930902793
-0.1927619878
-0.1923457911
-0.1918202314
-0.1911570644
-0.1903212569
-0.189269101
-0.1879460235
-0.1862840135
-0.1841984762
-0.1815843829
-0.1783116679
-0.1742194814
-0.1691108998
-0.1627458149
-0.1548594834
-0.1451842717
-0.1337101963
-0.1208677528
-0.1079148749
-0.09448301037
-0.08445401852
-0.07914774938
-0.07284697067
-0.06766025589
-0.06119979635
-0.05654274899
-0.0414451227
-0.04964291173
-0.1795636554
-0.1947527166
-0.2032638341
-0.1953237857
-0.1908627794
-0.1942876954
-0.195474663
-0.1944306445
-0.1939976868
-0.1940552869
-0.1940105036
-0.1938993058
-0.1937745633
-0.1936297614
-0.1934424754
-0.1932011578
-0.1928950719
-0.1925071249
-0.1920153573
-0.1913928206
-0.1906057567
-0.1896117234
-0.1883575178
-0.1867766114
-0.1847860967
-0.1822833236
-0.1791425078
-0.1752130973
-0.1703250838
-0.1643028364
-0.1569600307
-0.1483325033
-0.1383170068
-0.1283509858
-0.1183368298
-0.1086667931
-0.1013423811
-0.09441882534
-0.08831436776
-0.08081908239
-0.07445111352
-0.06765317703
-0.06570820467
-0.05923434573
-0.05834299178
-0.06508791195
-0.180925279
-0.1956965733
-0.2057981562
-0.1957753662
-0.1895322574
-0.192934547
-0.1949987186
-0.1943372872
-0.1938699574
-0.1940324309
-0.194101669
-0.1940443447
-0.1939788297
-0.1939069017
-0.1938021468
-0.1936574216
-0.1934693028
-0.1932273761
-0.1929171799
-0.1925209276
-0.1920159167
-0.1913731713
-0.1905560136
-0.1895181783
-0.1882015786
-0.1865339064
-0.1844261431
-0.1817718086
-0.1784512517
-0.1743227551
-0.1692618136
-0.1632038032
-0.1561044867
-0.1486117323
-0.1407284206
-0.1334507458
-0.1267257856
-0.1194874011
-0.1117141025
-0.1040752622
-0.09565906258
-0.08778628918
-0.08306506988
-0.07885163297
-0.08031865009
-0.0778783149
-0.08012235387
-0.18168606
-0.196103571
-0.2057885169
-0.1951527927
-0.1889891821
-0.1927170498
-0.1950938146
-0.1944829931
-0.1940646612
-0.1942243279
-0.1943091175
-0.194273122
-0.1942493527
-0.1942339994
-0.1942025473
-0.1941548643
-0.1940910986
-0.1940056944
-0.1938917519
-0.1937411682
-0.1935432744
-0.1932840877
-0.192945439
-0.1925037593
-0.1919286643
-0.1911811417
-0.1902110842
-0.1889560903
-0.1873344518
-0.18526322
-0.1826232598
-0.1793320846
-0.1753181812
-0.1705613023
-0.1650267332
-0.1587991666
-0.1519142669
-0.1449440791
-0.1372031141
-0.1285443698
-0.1201090616
-0.1123070574
-0.1063446063
-0.09819496205
-0.09379472736
-0.09237224952
-0.09976013357
-0.09579168617
-0.1285026568
-0.1816993055
-0.1961455527
-0.2058358707
-0.1952107122
-0.1890454659
-0.1927712494
-0.1951651521
-0.1945729843
-0.1941621022
-0.1943474985
-0.1944753537
-0.194482668
-0.1945089228
-0.194559904
-0.1946110606
-0.1946665902
-0.1947324172
-0.1948097704
-0.1949001689
-0.1950059734
-0.1951295954
-0.195273372
-0.1954394718
-0.1956296116
-0.1958446348
-0.1960838448
-0.1963438628
-0.1966166469
-0.1968858597
-0.1971194982
-0.1972492415
-0.197139051
-0.1965470272
-0.1950309999
-0.1919921939
-0.1872425181
-0.181129705
-0.174075658
-0.1655937358
-0.1557492559
-0.145807646
-0.1362473051
-0.1282362697
-0.1188750803
-0.1128434804
-0.1105170954
-0.1131100962
-0.1200252447
-0.1357152112
-0.1510399082
-0.1809495893
-0.195690524
-0.2058190583
-0.1958763232