/*--------------------------------*- C++ -*----------------------------------*\
| =========                 |                                                 |
| \\      /  F ield         | OpenFOAM: The Open Source CFD Toolbox           |
|  \\    /   O peration     | Version:  4.1                                   |
|   \\  /    A nd           | Web:      www.OpenFOAM.org                      |
|    \\/     M anipulation  |                                                 |
\*---------------------------------------------------------------------------*/
FoamFile
{
    version     2.0;
    format      ascii;
    class       surfaceScalarField;
    location    "2";
    object      phi;
}
// * * * * * * * * * * * * * * * * * * * * * * * * * * * * * * * * * * * * * //

dimensions      [0 3 -1 0 0 0 0];

internalField   nonuniform List<scalar> 
70319
(
0.4729401025
-0.1177945333
0.05507750655
-0.1833428379
-0.2268802379
0.4633859794
0.01727302967
-0.007718906544
0.4669058321
0.01200550518
-0.01552535789
0.4687560267
0.004878701813
-0.006728896396
0.4673967128
0.000635704867
0.0007236089837
0.4662876015
-0.0005076751874
0.001616786532
0.4658297061
-0.000476611246
0.0009345066512
0.465699418
-9.977582176e-05
0.0002300639062
0.465682659
0.0001971131089
-0.0001803541279
0.4656623344
0.0003980549399
-0.0003777302705
0.4656149709
0.000576470837
-0.0005291074009
0.4655417808
0.0007625722131
-0.0006893820741
0.4654473884
0.0009711466067
-0.0008767542542
0.4653292245
0.001222622247
-0.001104458375
0.465180654
0.001535244049
-0.001386673571
0.464993183
0.001926476708
-0.001739005647
0.4647561045
0.002416526026
-0.002179447549
0.4644557959
0.003030315175
-0.002730006657
0.4640748983
0.003798829563
-0.003417931968
0.4635911643
0.004760646764
-0.004276912839
0.4629759043
0.005963739735
-0.005348479767
0.4621918827
0.007467635542
-0.006683614036
0.4611903372
0.009346028465
-0.008344483015
0.4599069526
0.01168983827
-0.01040645374
0.4582560646
0.01461129365
-0.01296040576
0.4561256163
0.0182496863
-0.01611923805
0.4533516686
0.02278936545
-0.02001541798
0.449747979
0.02846050622
-0.02485681673
0.4445205088
0.03572732023
-0.03049985034
0.4374404873
0.04490762513
-0.03782760395
0.428054689
0.05680289124
-0.04741709341
0.4114629952
0.07354932467
-0.0569576314
0.3573845324
0.08848332969
-0.03440486751
0.1902357304
0.1671488015
0.09680395068
-0.002214311839
0.00522049315
0.8952692293
-0.004970711923
-0.02425158854
-0.1101671747
-0.1680004296
-0.3109958113
-0.248292229
-0.03245246929
0.003861185092
0.7839159137
0.007767520607
-0.01420873829
0.7840874393
0.006194493778
0.01090701026
0.7748654167
0.003818911786
0.01740861605
0.7657251462
0.002005019637
0.01201395263
0.7603668507
0.001104910783
0.004889089642
0.7580859717
0.0006118411748
0.00116136263
0.757003488
0.0004435663975
0.0001623060457
0.7564314626
0.0004674401647
4.809352605e-06
0.756117289
0.0005406737533
-2.938701155e-05
0.7559418432
0.0006358524704
-6.235173307e-05
0.7558252484
0.0007920111016
-9.894544585e-05
0.7557240933
0.001003408612
-0.0001396813293
0.7556181597
0.001262687254
-0.0001856070522
0.755494302
0.001585083193
-0.0002386032462
0.755342173
0.001989285943
-0.0003019129178
0.7551513089
0.002496786386
-0.0003794456287
0.7549092717
0.003133889726
-0.0004753265165
0.7546006738
0.003933258909
-0.0005943458818
0.7542059318
0.004935817907
-0.0007422463935
0.7536995879
0.006192971554
-0.0009259808394
0.7530483986
0.007768952273
-0.00115402338
0.7522084584
0.00974413978
-0.001436564011
0.7511212285
0.01221889732
-0.001785639064
0.7497080988
0.01531808872
-0.002215120855
0.747862953
0.01919658439
-0.002740145036
0.745442855
0.0240462762
-0.003376491999
0.7422467424
0.03011652757
-0.004131049603
0.7379925316
0.03772565825
-0.005010941421
0.7321603179
0.04744446976
-0.005884936043
0.7244459534
0.0596924519
-0.007070462518
0.713566308
0.07637636682
-0.008693830565
0.6947761594
0.09601414876
-0.003674675935
0.6396568845
0.1206436303
0.02295897384
0.5087946231
0.1365443427
0.1845536485
0.4442195167
0.1394900056
-0.07491489984
0.4101273495
0.1505818798
-0.1164897134
0.3543591083
0.1654475815
-0.109679341
0.2351239765
0.119235131
0.003931192798
0.1923860669
-0.001593813021
0.03190809788
0.9160360512
0.0001239781303
-0.001316778426
-0.1973767293
-0.2111241428
-0.2531569313
-0.2581561594
0.9227204715
0.0001631950151
0.0009199053717
0.9123694043
0.0003236865661
0.01622187434
0.8996061816
0.0003409959984
0.01624113853
0.8921385842
0.0003094574887
0.009163159492
0.8891740215
0.0002994623401
0.003770011149
0.8881942036
0.0003232628582
0.001268396286
0.8878038102
0.0003627100326
0.0004712497831
0.887595307
0.0004387952827
0.0002371480332
0.8874656141
0.0005428161808
0.0001275504941
0.8873775905
0.0006684370503
5.543899912e-05
0.8873122995
0.0008404121556
1.688992937e-05
0.8872571403
0.001060408017
-1.840222795e-06
0.8872014788
0.001333040596
-1.469187076e-05
0.887137952
0.001673092307
-2.448232801e-05
0.8870605393
0.002100247519
-3.354883117e-05
0.8869626728
0.002637428627
-4.277575059e-05
0.886836614
0.003312690051
-5.274157933e-05
0.8866725071
0.004161225347
-6.385959876e-05
0.886457397
0.00522734088
-7.64129006e-05
0.8861740951
0.006566793214
-9.051976051e-05
0.8857994057
0.008249678378
-0.0001060367859
0.8853018098
0.01036420406
-0.0001224684262
0.8846380855
0.01302138954
-0.0001387680072
0.8837485249
0.0163605322
-0.0001528829297
0.8825504448
0.0205556523
-0.0001609879535
0.8809298795
0.02582298478
-0.0001561433388
0.8787287406
0.03244207135
-0.0001244050348
0.8757149524
0.0407747675
-3.532112494e-05
0.8715670735
0.05145337849
0.0001389698877
0.8657081222
0.06515842948
0.0003929735323
0.8572124887
0.08392770641
0.0009442936002
0.8421017387
0.1065501719
0.00457472653
0.8140277864
0.1339398966
0.01477768554
0.7647345128
0.1587141034
0.02712351251
0.7215629205
0.1812197652
0.001441832198
0.6830640089
0.2040690618
-0.01498827085
0.6238115258
0.2324041177
-0.007704053857
0.5009572457
0.2371215151
0.1208567404
0.4128080866
0.229591966
-0.141442808
0.3419593296
0.2254746811
-0.1546259256
0.266008802
0.07595052645
-0.0006962744953
0.2046092061
0.001938625882
0.03552090668
0.9157848867
0.003629018686
-0.001711412582
-0.2108858956
-0.1966537693
-0.257764697
-0.2522741527
0.922880736
-0.007736532907
0.0008038786237
0.9127345824
-0.005679211516
0.01614905167
0.9000828523
-0.003205147154
0.01619787321
0.8926625172
-0.00142070026
0.009150492825
0.8897163454
-0.000526394649
0.00377202879
0.8887371398
2.410329927e-05
0.001278365213
0.8883543869
0.0002582563957
0.0004872065729
0.8881639093
0.0003833031618
0.0002459696343
0.888064528
0.000504444431
0.0001377531143
0.8880171053
0.0006369128864
7.894681832e-05
0.8880014299
0.0008040156512
5.20719403e-05
0.8880032826
0.001015320476
4.323482388e-05
0.88801725
0.001275975815
4.309735846e-05
0.8880407925
0.001601207358
4.834241261e-05
0.8880727001
0.002010207702
5.8132175e-05
0.8881122648
0.002525373789
7.249011456e-05
0.8881589417
0.003173964997
9.20482085e-05
0.8882119595
0.003990270478
0.0001179370052
0.8882699082
0.005017578023
0.0001518140923
0.8883302
0.006310541812
0.0001959595321
0.8883882295
0.007938259665
0.0002533891544
0.8884362076
0.009988196638
0.0003280292877
0.8884615295
0.01257112832
0.0004249392455
0.8884445569
0.01582699966
0.0005505050563
0.8883562023
0.01993159993
0.0007124069661
0.8881563324
0.02510342109
0.000919433475
0.8877959279
0.03162234986
0.00118012591
0.8872205076
0.03984342996
0.001506757723
0.8863815435
0.05037768697
0.001914655405
0.885099199
0.06383955666
0.002601217053
0.882467878
0.08216066013
0.004398367061
0.8759748937
0.1058048736
0.007238282256
0.8649437454
0.133547572
0.01142347257
0.8471067811
0.1630657993
0.01348526799
0.8298134719
0.19042661
0.008086463927
0.8089103547
0.2238995772
0.001072601274
0.7790038921
0.265499281
-0.003188701348
0.7216647833
0.2885221879
0.005938435273
0.6655928463
0.3033321507
-0.01766824864
0.5874518846
0.3216415442
-0.01802590235
0.47574828
0.3082404242
0.06947198092
0.3398981112
0.2848103337
-0.148960167
0.2788348984
0.0610632113
-0.001583120464
0.1566070037
0.001057108166
0.02580673311
0.8955263289
-0.02516368406
-0.1674498742
-0.1098599413
-0.2472351149
-0.3107741608
-0.03428339354
0.002868858566
0.7843938036
0.1175475297
-0.01415153732
0.7847361428
-0.01702557573
0.01100402502
0.7756582017
-0.01165289223
0.01752568609
0.7666358462
-0.004504515625
0.01210617094
0.7613592846
-0.0002271456362
0.004977312568
0.7591474684
0.000966885556
0.00126903395
0.7581200332
0.001006443164
0.0002792483886
0.7576094553
0.0007512851318
0.000142595921
0.7573738349
0.0006020065049
0.0001380583959
0.7572789231
0.0005914520717
0.000140372539
0.7572621557
0.0006677050124
0.0001530780956
0.7572930227
0.000806375352
0.0001780781428
0.7573560982
0.0009989082114
0.0002139920243
0.75744474
0.001249332672
0.0002632328494
0.7575590361
0.001567655617
0.0003282560432
0.7577024979
0.001969894066
0.0004120178719
0.7578802869
0.002477351398
0.0005188245961
0.7580989379
0.003117176587
0.0006544428129
0.7583663439
0.003923845666
0.0008263263938
0.7586916983
0.00494119605
0.001043991259
0.7590854373
0.006224981516
0.001319539092
0.7595590892
0.007846271891
0.00166827281
0.7601249425
0.009895915132
0.002109359866
0.7607956037
0.01248994088
0.002666397435
0.7615839474
0.01577588634
0.003367369843
0.7625043775
0.01993899673
0.004243994159
0.7635848354
0.02521706315
0.005324828755
0.7648804378
0.0319054612
0.006642366198
0.7665722326
0.04051949344
0.008166398609
0.7685604914
0.05155525626
0.01029604143
0.7694758191
0.0658954842
0.01534984796
0.7687209472
0.08472471701
0.02183502827
0.7671641542
0.1068691417
0.02823522295
0.7679491967
0.1318093301
0.03047142638
0.7763143459
0.1560088322
0.02605262811
0.7932565644
0.1924035115
0.01455384679
0.8168269161
0.2560533675
-0.01412443867
0.8099893131
0.3028792113
-0.007519421043
0.7835801617
0.3375046047
-0.007763303428
0.7402742405
0.3692513604
-0.004303895915
0.6636324042
0.3809282264
0.003954032897
0.5668204815
0.3841465975
-0.002524342541
0.4073729273
0.3570774956
0.08120495425
0.327162605
0.08021032059
0.473362002
0.05477071793
-0.2271383314
-0.1834468588
0.4638846408
-0.007548214549
0.4675350571
-0.01530330852
0.4694771128
-0.006446571377
0.4681545137
0.001095453494
0.4670866015
0.002034797754
0.466683565
0.001409479635
0.466610223
0.0008246271861
0.4666599891
0.0005522403818
0.4667245244
0.0005269167491
0.4667910745
0.0006011549012
0.4668625684
0.0007348814736
0.4669475529
0.0009139237467
0.4670533025
0.001143583016
0.4671854108
0.001435547277
0.4673501537
0.001805151178
0.467555132
0.002272373087
0.46780974
0.002862568529
0.4681254309
0.003608154786
0.4685161114
0.00455051551
0.4689986595
0.00574243332
0.4695935514
0.007251379951
0.4703255593
0.009163907192
0.471224642
0.01159085818
0.4723271943
0.01467333397
0.4736756494
0.0185905415
0.4753301811
0.02356253135
0.477346834
0.02988880821
0.4801432309
0.03772309645
0.4842862626
0.04741222444
0.4869871359
0.06319461067
0.4877920754
0.08391977732
0.4878022939
0.106858923
0.4939725673
0.1256390563
0.5164270864
0.1335543129
0.5813983507
0.1274322469
0.6943089184
0.2840990956
-0.1409562962
0.7615850276
0.2476684256
-0.01206532402
0.7939631178
0.3206755826
-0.01554906874
0.7914982109
0.3745101338
-0.00279386727
0.7572041496
0.4148878187
0.000334467897
0.6977103338
0.4402003859
0.003440025963
0.592255478
0.4465012242
0.01603112554
0.4643118343
0.4127894968
0.04231674937
0.3141378801
0.3687567987
-0.2185828475
0.3108401951
0.003297683157
0.4159372644
-0.1318381692
0.543309832
0.1202958578
0.6626228237
0.3160294226
-0.1146668324
0.7336294179
0.3028205495
0.0006829893803
0.7631444743
0.390242074
-0.004869312616
0.7494694713
0.4498331287
0.0040422591
0.7005494307
0.491102049
0.004319214101
0.6126081972
0.5031403482
-0.002409619682
0.5167801276
0.4898518042
-0.02526693776
0.3695297438
0.4455263816
0.01256419404
0.3431770656
0.02635267623
0.4064902827
-0.09046086055
0.531540639
0.1777701928
0.6350379542
0.3468555204
-0.06011076272
0.700059642
0.3660055403
0.01880589945
0.719867937
0.4720130486
-0.0007192957757
0.6917938567
0.5347749313
-0.003560504137
0.6259641899
0.561174393
-0.005492923662
0.5236855835
0.551433444
-0.00362845767
0.3657705782
0.493245974
0.007846093704
0.3668910797
-0.001120503469
0.3937757936
-0.0469202739
0.5320095352
0.2277717978
0.6354450728
0.400879222
-0.03230171242
0.6914228954
0.4807453664
-0.001948259113
0.6736921762
0.5737849832
0.005120127847
0.6094383395
0.6159955763
-0.0003082974817
0.5011152273
0.6091906322
-0.007621547715
0.358161134
0.5403304899
-0.03048531987
0.3914567707
-0.03329563938
0.4417556496
-0.04087642854
0.5495817842
0.3791660825
-0.006246852073
0.6230611767
0.466433505
0.03387208415
0.6346437829
0.5965831466
0.007829822296
0.582158415
0.670019154
-0.008343155534
0.4781382815
0.6675882345
-0.02323761385
0.3531050566
0.5902646405
-0.07377464612
0.4178021228
-0.0646970682
0.3499719667
0.02919411455
0.4973116034
0.3190938677
0.5669944055
0.4768331415
0.05006720133
0.6065450996
0.63406934
-0.003600881929
0.5621695188
0.7301242023
-0.01816038831
0.460454283
0.7274133548
-0.0354334802
0.3521403439
0.6352036203
-0.1090875585
0.4400717388
-0.08793139436
0.4549285029
0.02190463778
0.5446689999
0.5554151003
-0.01108625873
0.5778255046
0.7211961151
-0.02422841896
0.5346038158
0.7952556534
-0.02462061101
0.42881357
0.7788891631
-0.037895297
0.3333862876
0.6411012873
-0.1056022659
0.3936026523
-0.06021636394
0.4610192449
0.3973998107
-0.3030039569
0.5590942264
0.6620143788
-0.03889324632
0.557922835
0.8149930116
-0.01856596755
0.5018552848
0.8517173275
-0.01676061469
0.368931286
0.782124605
-0.00809931904
0.5742548065
0.1882791315
0.3830187882
0.01438102155
0.4772330321
0.5196477893
0.04815234404
0.5413545233
0.7538397744
-0.00296825478
0.5228006537
0.8812491855
-0.01097798898
0.4478237728
0.8756922256
-0.01859074026
0.3692862498
0.7709915182
-0.1181991897
0.4993619871
-0.1300757374
0.4267521233
0.09289566522
0.478992616
0.6344380191
0.06716126153
0.5134856449
0.8559293877
-0.009173232051
0.4800628532
0.9270992202
-0.01798420375
0.3865980862
0.8980483344
-0.03359204997
0.3185401485
0.713247876
-0.1458279516
0.4219383974
-0.1033982481
0.3973185579
0.4778236886
-0.240704229
0.4891530381
0.7833189913
-0.01922408491
0.4857225556
0.9434027539
-0.01287305235
0.4323450956
0.9613728697
-0.009947076472
0.3136294859
0.8465220807
-0.01455859543
0.5893095702
0.1462583132
0.3886777354
0.08914595213
0.4247971818
0.6554646775
0.09173486572
0.4597951254
0.9096180191
-0.001213210305
0.4343745894
0.9922672336
-0.005473829297
0.357030832
0.9371969538
-0.01333111645
0.3081614768
0.7605317672
-0.1223528413
0.4157645633
-0.1076030857
0.3435646996
0.5035864636
-0.191686488
0.4266036475
0.8279904016
-0.00141133189
0.4257142187
0.9936106335
-0.0004539724985
0.369192367
0.9930142301
0.0007045745878
0.2565977258
0.8576912581
0.01543515016
0.5145686196
0.15779367
0.3640370553
0.1395494069
0.3573706375
0.6838033864
0.1508534308
0.3849129205
0.950212281
0.01585606823
0.3579575435
1.01613019
0.003839415879
0.2760599105
0.9199896004
0.01959929056
0.6359021083
0.154726422
0.2895180756
0.5253274805
-0.1310421716
0.3530058605
0.8653095926
0.02141490218
0.3405601111
1.02136318
0.007212758934
0.2768677985
0.9902752157
-0.006593302917
0.2764083698
0.7912699478
-0.1549084104
0.4242617779
-0.1478534079
0.3368532653
0.1884742138
0.2923886611
0.7147248066
0.1950493891
0.3093040823
0.9878432352
0.01660452294
0.2734156442
1.024518247
0.001645406658
0.1884104593
0.8637219723
0.01255316027
0.4984532489
0.1142189882
0.2305979334
0.6342052796
-0.1500784074
0.271700991
0.9593601402
-0.01261996297
0.2539412993
1.042930928
-0.0006529899596
0.1807020745
0.912389674
0.02457152299
0.5587338851
0.1204214381
0.1993548564
0.6070184831
-0.1721680605
0.2370127019
0.9488554139
-0.02715311964
0.227996015
1.058418401
-0.006470786103
0.1734165694
0.9609331403
0.006035979272
0.6480895322
0.08406092258
0.1669951243
0.5970277864
-0.1570044281
0.1996582136
0.9515381789
-0.03534585437
0.1948931354
1.078688012
-0.0155045321
0.1589154092
1.025311102
-0.02840023503
0.222634437
0.8094502842
-0.2250797789
0.4175467106
-0.1949122727
0.1333099633
0.5966143268
-0.132896504
0.1632096597
0.9560732322
-0.03443474983
0.1633376455
1.093468784
-0.014908758
0.1438724311
1.0603489
-0.01557258324
0.1062670053
0.8682279983
-0.0211722873
0.4910034214
0.03281029557
0.1024110444
0.5968497669
-0.1026464849
0.1302582252
0.9564625233
-0.02823647197
0.1336981293
1.100148592
-0.01011971129
0.1243104951
1.075970443
-0.00623390779
0.09209798016
0.8936083955
0.006832118748
0.5268964098
0.05620499271
0.07784190781
0.5954855683
-0.07647770943
0.1011772365
0.9539029224
-0.02077572776
0.10504011
1.10259187
-0.00630615135
0.09972436903
1.083921044
-0.002634859592
0.07438136009
0.9081986432
0.01075276198
0.5455780029
0.05569976768
0.05822242396
0.5930416029
-0.05577845865
0.07509886146
0.9515723168
-0.01454583174
0.07791792984
1.103400569
-0.00362776672
0.0740666609
1.088977409
-0.00120509549
0.05774390094
0.9169858165
0.007535587177
0.5569885026
0.0463334018
0.04477060764
0.591675422
-0.04340442675
0.05752107553
0.9500093859
-0.01118753682
0.05927867276
1.103794396
-0.002151424356
0.05582197901
1.092474055
-3.99525156e-05
0.04389070681
0.9222233304
0.006693758817
0.562359237
0.03851997277
0.03579082274
0.5897426384
-0.03385803898
0.04600810514
0.9484200619
-0.008627958158
0.0470353857
1.104079051
-0.001311934932
0.04394263349
1.095261167
0.0003056414229
0.03400330923
0.9263877049
0.005774950171
0.5660245145
0.03033803199
0.0287579066
0.5879943345
-0.02700960264
0.03692586841
0.9469781936
-0.006726093299
0.03758334053
1.104305866
-0.0008842865876
0.03510123732
1.097486672
0.0002565982694
0.02681478378
0.9297721291
0.004902029663
0.5688822574
0.02395704114
0.02286477695
0.5864578725
-0.02132831485
0.02931141622
0.9457813711
-0.005249816547
0.0298151587
1.104442256
-0.0006401325439
0.02800038914
1.099144567
0.0001568748102
0.02132966744
0.9323697806
0.004073070586
0.5712406349
0.01897129029
0.0180685681
0.5851117502
-0.01672244559
0.02317269924
0.9447788662
-0.004101626008
0.02361288615
1.104470449
-0.0004683793844
0.02230725858
1.100340091
0.0001101037965
0.01701319012
0.9343472221
0.003316627262
0.5731546963
0.01509912899
0.01428446851
0.5839943441
-0.01316706231
0.01833806552
0.9439478522
-0.003222582781
0.01872337593
1.104429457
-0.0003443185631
0.01775974541
1.101215235
8.848680978e-05
0.01357068268
0.935860351
0.002675934101
0.5746476905
0.01207768869
0.01129059955
0.5831119384
-0.01040819363
0.01448844225
0.9432897769
-0.002539767258
0.01480672127
1.104366789
-0.0002556105804
0.01408968785
1.101860714
7.155444869e-05
0.01079602421
0.9370024981
0.002151516835
0.575785175
0.009658539988
0.008886762704
0.5824392312
-0.008214055396
0.01137233649
0.9427989021
-0.00199469876
0.01161704444
1.10431065
-0.000188568188
0.01109404223
1.102327865
5.585152553e-05
0.008540819203
0.9378359819
0.001719739529
0.5766365254
0.007689469062
0.00694780014
0.5819455177
-0.006454086452
0.008840877381
0.9424610849
-0.001555259836
0.009012121305
1.104274727
-0.0001353214054
0.008646843952
1.102651747
4.139598143e-05
0.006706503819
0.9384138887
0.001362433629
0.5772561112
0.006086918222
0.005402863613
0.5815975601
-0.005054905787
0.006818914362
0.9422509523
-0.001205917878
0.006923188969
1.104265459
-9.500648017e-05
0.006680325738
1.102866004
2.860684054e-05
0.005232710245
0.9387906726
0.001070831826
0.5776913763
0.004797445341
0.004204231057
0.5813557187
-0.003962389531
0.005257127694
0.9421348854
-0.0009368296246
0.005249294148
1.104344486
-7.119262141e-05
0.005165508958
1.102935021
1.476799747e-05
0.004086446098
0.9390285888
0.0008411470013
0.5779948761
0.003782946529
0.003304462058
0.5811777112
-0.003126454291
0.004112324586
0.942062362
-0.0007353388628
0.004161796335
1.104350299
-5.528442546e-05
0.004062437603
1.103027866
6.514049735e-06
0.003228024468
0.9391951774
0.0006678247371
0.578218902
0.003003998773
0.002641799272
0.5810286876
-0.002492775535
0.003295852976
0.941994803
-0.000586494533
0.003343571372
1.104344398
-4.181749282e-05
0.00326523968
1.103098611
7.587329873e-06
0.002590784695
0.9393308369
0.0005387956935
0.5784011885
0.002408498389
0.00214121289
0.5808915754
-0.002004100549
0.002693618856
0.941916441
-0.0004740438035
0.002744005178
1.104327238
-3.322603313e-05
0.002670578142
1.103162284
9.754247707e-06
0.002104827052
0.9394568889
0.0004396992924
0.5785613222
0.001944693454
0.001742263747
0.5807641762
-0.001614864402
0.002213903212
0.9418292344
-0.0003844327145
0.002266902891
1.104301308
-2.706973367e-05
0.002196056966
1.103222145
1.098514168e-05
0.001716071923
0.9395769105
0.0003599635541
0.5787044869
0.00157290734
0.001412225475
0.5806501026
-0.001298151712
0.001809773154
0.9417420776
-0.0003103908145
0.001861548395
1.104271554
-2.20209846e-05
0.00179647525
1.103276324
1.089423492e-05
0.001393588919
0.9396864447
0.0002933522946
0.5788293431
0.001268732855
0.00113745698
0.5805523907
-0.001039744965
0.001465916503
0.9416626304
-0.0002490122144
0.001512644883
1.104242589
-1.776357337e-05
0.001456222141
1.103322901
9.845308615e-06
0.001124214062
0.9397812473
0.000237205647
0.5789344563
0.001019100981
0.0009113227766
0.5804714887
-0.0008304206935
0.001178225994
0.9415945483
-0.000198820968
0.001218099809
1.104216937
-1.42213057e-05
0.001171216634
1.10336137
8.414966635e-06
0.0009018827504
0.9398600423
0.0001905389796
0.5790204733
0.0008158658575
0.0007279286478
0.5804058753
-0.0006623152366
0.0009427263773
0.941538185
-0.0001584343461
0.0009757393214
1.104195272
-1.134811659e-05
0.0009376962372
1.103392428
6.984597961e-06
0.0007211949568
0.9399240605
0.0001524832282
0.5790897002
0.000651968167
0.0005811799963
0.5803530098
-0.0005283143372
0.0007537683282
0.941491985
-0.0001263882245
0.0007808444102
1.104177325
-9.128972214e-06
0.0007500738824
1.103417497
5.701609462e-06
0.0005762895022
0.9399759218
0.0001219231506
0.5791451717
0.000520818133
0.0004657866587
0.5803098231
-0.0004225999672
0.0006063920771
0.9414528861
-0.0001015064653
0.000629189122
1.104162096
-7.567752175e-06
0.0006034562645
1.103438572
4.658439133e-06
0.0004621884908
0.9400193434
9.784626256e-05
0.5791904
0.0004169602235
0.0003794338449
0.5802721288
-0.0003417394379
0.0004992285935
0.9414162157
-8.312434318e-05
0.0005203251411
1.104147777
-6.777209756e-06
0.0004964585018
1.103458418
4.019965574e-06
0.0003763332775
0.9400597048
7.976384394e-05
0.5792296849
0.0003370484024
0.0003232740354
0.5802333959
-0.0002845411499
0.0004387393886
0.9413725788
-7.182843288e-05
0.0004627019561
1.104130804
-6.989849933e-06
0.0004351364248
1.103481761
4.222509495e-06
0.0003206675398
0.9401060766
6.80971835e-05
0.5792700086
0.0002803438772
0.0003032095891
0.5801837352
-0.0002535488677
0.0004339987332
0.9413101074
-6.831766729e-05
0.0004676098474
1.104105908
-8.715198823e-06
0.0004290387188
1.103514691
5.641974375e-06
0.0003001823556
0.9401711916
6.374133113e-05
0.5793214771
0.0002487138562
0.0003212376144
0.5801104487
-0.0002479511086
0.0004922268819
0.9412126281
-7.350993922e-05
0.0005436180221
1.104066603
-1.208620454e-05
0.0004841967264
1.103565571
8.540784407e-06
0.0003168418278
0.94027143
6.711654844e-05
0.5793965781
0.00024174088
0.0003651248386
0.580006114
-0.000260790191
0.0005933534762
0.9410696273
-8.522786477e-05
0.0006696128229
1.104007556
-1.721258697e-05
0.0005842547765
1.103639135
1.179466275e-05
0.0003618175665
0.94041829
7.557715452e-05
0.5795047468
0.0002536488884
0.00041060751
0.5798736716
-0.0002781651023
0.0006887716177
0.9408891922
-9.772902778e-05
0.0007869121757
1.103933687
-2.427112278e-05
0.0006770555786
1.103737371
1.162067639e-05
0.0004059999287
0.9406075841
8.176159177e-05
0.579643295
0.0002674516765
0.000415370539
0.5797333593
-0.0002750582822
0.0007094084699
0.9407002164
-0.0001050621285
0.0008924135495
1.103788318
-3.763601272e-05
0.0007107673101
1.103918994
2.302949298e-08
0.0004159576868
0.9408252459
7.714785333e-05
0.5797971389
0.0002621138164
0.0003637129796
0.5796122256
-0.0002425792711
0.0006227236171
0.9405454794
-0.0001042736965
0.0007297704367
1.10373257
-5.129888343e-05
0.0006359276466
1.104029529
-1.669204448e-05
0.0003686376379
0.9410372081
5.532778812e-05
0.5799418075
0.0002239690323
0.0002734111696
0.5795320283
-0.0001932138598
0.0004638101519
0.9404565673
-0.0001014869451
0.0005492123134
1.103712224
-6.5056141e-05
0.0004832734341
1.104136524
-4.105666939e-05
0.0002788572353
0.9412232799
1.834439285e-05
0.5800586347
0.0001620299852
0.0001783230655
0.5795051915
-0.0001514863477
0.0002890203751
0.9404544202
-0.0001085502506
0.0003515245247
1.103745875
-9.615504996e-05
0.0003166196843
1.104253598
-8.216874029e-05
0.0001803963161
0.9413928921
-3.338889284e-05
0.5801552667
8.376434474e-05
0.0001117350193
0.5795069077
-0.0001134512882
0.0001409948868
0.9405618856
-0.0001367252701
0.0001891790886
1.103846253
-0.0001485628566
0.0001861641651
1.104398227
-0.0001416141028
9.048405789e-05
0.9415851992
-9.662706803e-05
0.5802187569
2.699383937e-05
1.301811833e-05
0.5796166217
-0.000122732137
1.936666789e-05
0.9407631631
-0.0002076262193
7.949143065e-05
1.10403632
-0.0002501910634
0.0001266576424
1.104597913
-0.0002468527156
8.709098407e-05
0.9418151066
-0.0001903407525
0.5803435846
-3.773676979e-05
0.0002159965107
0.5798004801
-0.0003998550491
-6.522236547e-05
0.9411057869
-6.140494914e-05
1.656203593e-05
1.104229121
-0.000274585485
0.0001020501809
1.10478294
-0.0002705151802
-0.0001802812244
0.9421482816
-5.084361583e-05
0.5805169602
-0.0003536568408
-0.001704541084
0.5804995482
0.001005472946
-0.0007311794058
0.9398341136
0.0002983115098
1.10607169e-05
1.103630982
-0.0001441019207
0.0007543750127
1.104170648
-0.0001310223215
0.0017322252
0.9408593401
0.0003110912062
0.5811931672
0.001056018158
-0.0006766520675
0.5775784671
0.003597733166
-1.913706522e-05
0.932600463
0.006576135566
0.0001049054269
1.103310684
0.0001962560161
0.000164790498
1.103878777
0.0002319856524
0.000831508999
0.933559717
0.006632904563
0.5782759605
0.003748715818
0.144172051
-0.05688945737
0.216411034
0.2738848394
-0.006754678088
1.070380913
0.01314627918
0.0004222879844
1.100024284
-0.003890566235
0.007442154297
1.100656742
-0.003797831146
-0.1438082385
1.071362403
0.01344770733
-0.05653435206
0.2743118714
0.2166902026
0.001871741288
0.1362328876
-0.01110565632
0.2067309792
0.3872511612
0.3065378531
-0.001729306406
0.04459125315
0.001123072076
0.2410178981
-0.02871228765
0.2581370435
0.3113479232
0.3189823759
0.0005669580851
0.2583941476
-0.02833171902
0.2410023782
0.3189725212
0.3111755281
0.2065027311
-0.009574780189
0.1359377708
0.3057808344
0.3873506978
-0.0009463567906
0.04687846362
0.002139730022
0.1204304729
0.01366268464
-0.003824176946
0.0003961944561
0.2379329132
0.006512967436
-0.0007346879446
-0.0002206001117
0.2545940709
0.004755364766
0.002924785375
-0.001274854237
0.1952896817
0.009563118163
0.5171835725
0.01397988649
0.05278832915
-0.1298667597
-0.1720359378
-0.2820490908
0.5090981011
0.006424788904
0.001660682545
0.5055787128
0.003836007283
-0.000316618986
0.4994105292
0.0040893734
0.002078810131
0.4950475992
0.002643396183
0.00171953379
0.4933193261
0.001160041431
0.0005682316727
0.4928916288
0.0004939736451
-6.62763046e-05
0.4928013518
0.0003279937306
-0.000237716783
0.4927615164
0.0003638567133
-0.0003240212996
0.4927019506
0.0004670592688
-0.0004074934744
0.4926083834
0.0006006729302
-0.0005071056718
0.4924792567
0.0007619094591
-0.0006327827718
0.492312245
0.000959313092
-0.0007923014294
0.4921002599
0.001204361215
-0.0009923761248
0.4918324868
0.001510149391
-0.001242376268
0.4914948778
0.001892328752
-0.001554719775
0.4910696187
0.002369991442
-0.001944732342
0.4905341994
0.002966700994
-0.002431281806
0.4898601832
0.003711606373
-0.003037590158
0.4890115995
0.004640689786
-0.00379210609
0.4879428234
0.005798180495
-0.004729404466
0.4865957321
0.00723815431
-0.005891063082
0.4848958882
0.009026416275
-0.007326572469
0.482747278
0.01124318747
-0.009094577262
0.4800252487
0.01398814019
-0.01126611102
0.4765606713
0.0173918409
-0.01392726365
0.4721266891
0.02163279858
-0.01719881647
0.4662587301
0.02699937799
-0.02113141916
0.458278575
0.0339283553
-0.02594820043
0.4447645539
0.04300435264
-0.02949033184
0.427156874
0.05688617927
-0.03927849987
0.3650951696
0.07694530447
-0.01488360066
0.2018282441
0.1632669252
0.007056617177
0.1994981726
0.007105499183
0.01465456029
0.9688481529
0.1010925528
-0.009937384783
-0.2208629767
-0.2966214154
-0.2384102112
-0.2479366687
-0.01343178061
-0.052671684
-0.01318082946
0.01299034926
0.009412759066
0.0007091367933
0.9612741361
0.0136114126
0.007942490708
0.9431094121
0.01386466424
0.01072484866
0.9298308144
0.006743694373
0.01037091058
0.9239119213
0.003372738398
0.006635528118
0.9217772684
0.002236252814
0.002541796244
0.9210182564
0.001409901794
0.0005091516618
0.9206517835
0.0008674564398
-7.009926621e-06
0.9204072025
0.0006837323734
-0.0001111575871
0.9202271851
0.0006917596273
-0.0001478855583
0.9200610743
0.0008211897665
-0.0001880197061
0.9198804493
0.001031190127
-0.0002498921831
0.9196670691
0.001302130657
-0.000326841045
0.9194023814
0.001641914609
-0.0004179137627
0.9190698416
0.002064882739
-0.0005279817429
0.9186509136
0.002592420849
-0.000663343521
0.9181226123
0.003251734335
-0.0008311042825
0.9174562024
0.004075995512
-0.001039594179
0.9166154444
0.005106357543
-0.001298898587
0.9155543603
0.006393928798
-0.001621238361
0.914214497
0.008001917832
-0.002021364757
0.9125211917
0.01000840036
-0.002516914691
0.9103783793
0.0125095674
-0.003128600779
0.9076612708
0.01562359248
-0.003880067692
0.9042059277
0.01949572877
-0.004797198273
0.8997945256
0.02430596309
-0.005906420956
0.8941334306
0.03028291888
-0.007229983108
0.8868169063
0.03772303516
-0.008773712392
0.8772283155
0.04706437618
-0.01047640764
0.8644344882
0.05885511326
-0.01213293089
0.8461029985
0.07425260733
-0.01291676549
0.8213506982
0.09383639319
-0.01219791409
0.7619247024
0.1210219128
0.01534938701
0.6417628384
0.1415310337
0.1804590737
0.5972028311
0.09273485246
-0.04817484565
0.4719563839
0.1977820769
-0.0725356304
0.4236668049