/*--------------------------------*- C++ -*----------------------------------*\
| =========                 |                                                 |
| \\      /  F ield         | OpenFOAM: The Open Source CFD Toolbox           |
|  \\    /   O peration     | Version:  4.1                                   |
|   \\  /    A nd           | Web:      www.OpenFOAM.org                      |
|    \\/     M anipulation  |                                                 |
\*---------------------------------------------------------------------------*/
FoamFile
{
    version     2.0;
    format      ascii;
    class       volVectorField;
    location    "2";
    object      U;
}
// * * * * * * * * * * * * * * * * * * * * * * * * * * * * * * * * * * * * * //

dimensions      [0 1 -1 0 0 0 0];

internalField   nonuniform List<vector> 
24850
(
(1.023045137 0.01582562631 0.01342228213)
(1.008939953 0.04127201784 -0.01328857696)
(1.004635659 0.03677002681 -0.02292689577)
(1.007365727 0.01581845867 -0.01146056717)
(1.007401624 0.002334776284 -0.0006321991387)
(1.004744132 -0.001042584105 0.001549697464)
(1.00283449 -0.001201745547 0.00106856373)
(1.002337273 -0.0004783694979 0.0003618749045)
(1.002350546 0.0001211613313 -1.345981895e-05)
(1.002341307 0.0004539260199 -0.0001427669562)
(1.002258178 0.0007052802453 -0.0002099089512)
(1.002125635 0.0009419024194 -0.0002748223133)
(1.001947752 0.001198816324 -0.0003506728972)
(1.001720815 0.001507910436 -0.0004426098543)
(1.001436484 0.001892570795 -0.0005562717761)
(1.00107866 0.002374230981 -0.0006980636859)
(1.000626405 0.002977680399 -0.000875374551)
(1.000054014 0.003733578313 -0.001097218895)
(0.9993287913 0.004679978319 -0.00137475749)
(0.998408875 0.005864232911 -0.001721870029)
(0.9972407182 0.007345344804 -0.0021558155)
(0.9957555781 0.009196666649 -0.002698044498)
(0.9938647752 0.01150933855 -0.003375214124)
(0.9914528575 0.01439677313 -0.004220477118)
(0.9883692321 0.01800066155 -0.005274797904)
(0.9844066611 0.02249850172 -0.006590529515)
(0.9793155595 0.02811819371 -0.008225955805)
(0.9725460003 0.03513232433 -0.01028942933)
(0.9641176373 0.04396475199 -0.01260397162)
(0.9491185698 0.05515115199 -0.01577171269)
(0.9406002748 0.06928610378 -0.0145214559)
(0.9128630608 0.09502684285 -0.01674967322)
(0.9424133484 0.1116399629 -0.01687392798)
(0.8961626609 0.1201490266 -0.01171421056)
(1.014222039 0.002147461536 0.001841186119)
(1.045448626 -0.002385236692 -0.02112604219)
(1.053889115 0.006389982145 0.001199118222)
(1.051168155 0.001928842328 0.01937718619)
(1.033511498 -0.004062095504 0.02498918381)
(1.020091293 -0.003831121674 0.01640952497)
(1.011692669 -0.001787296732 0.006097966441)
(1.006832405 -0.0006820481948 0.001237276313)
(1.004789409 -0.0001577028822 2.487397961e-05)
(1.003915143 0.0002119657222 -0.0001056969904)
(1.003403738 0.0004786122601 -6.914435006e-05)
(1.0031098 0.0006816150659 -5.928388607e-05)
(1.002928587 0.0009088480336 -7.456670406e-05)
(1.002795854 0.001182491079 -0.0001011481413)
(1.002665773 0.001502773892 -0.0001330513157)
(1.00251571 0.001892098745 -0.0001703464574)
(1.002334883 0.002376516481 -0.0002153945813)
(1.002110218 0.002982894464 -0.0002710108855)
(1.001826384 0.003742644643 -0.0003401291049)
(1.00146537 0.00469445546 -0.0004262272969)
(1.001004455 0.005886494926 -0.0005335939955)
(1.000414481 0.007378767413 -0.0006675358063)
(0.9996577068 0.009245853595 -0.0008346684641)
(0.9986848823 0.0115804133 -0.001043210999)
(0.9974315331 0.01449758298 -0.001303354223)
(0.9958126351 0.01814049152 -0.001627800621)
(0.9937156925 0.02268763177 -0.002032275555)
(0.9909857366 0.02836165318 -0.002536935353)
(0.9874226 0.03544932577 -0.003158499971)
(0.9826614566 0.04428936593 -0.003921563464)
(0.9764625559 0.05549285272 -0.004705400077)
(0.9672004568 0.06930476133 -0.005632849381)
(0.9580479452 0.08892991106 -0.004810274913)
(0.9448224441 0.1118438025 -0.004804844984)
(0.948137867 0.1372696209 -0.00117942887)
(0.905991528 0.1650206336 0.00018045337)
(0.8991038768 0.1949284791 -0.007027799357)
(0.8762647025 0.2216590785 -0.01983808476)
(0.8984834652 0.2443689491 -0.01884663392)
(0.8554376476 0.2374938194 -0.009314584523)
(1.006912882 0.0008852975624 -0.0009922757345)
(1.037362054 0.003391177589 -0.0154809316)
(1.058671397 0.00824812525 0.0001001970247)
(1.037170475 0.01109355736 0.02433027066)
(1.020640662 0.01121394676 0.0258378084)
(1.01093912 0.008080977447 0.01430481726)
(1.006564325 0.004308485399 0.005245921797)
(1.004307263 0.002049707959 0.001544694743)
(1.003629704 0.001152311521 0.0005026774059)
(1.003473274 0.0008369420969 0.0002125182491)
(1.003325749 0.0007427027336 9.444156974e-05)
(1.003196655 0.0007827605395 3.073338912e-05)
(1.00311112 0.0009359943421 -7.66383378e-06)
(1.003052254 0.001165801856 -3.05036602e-05)
(1.002993036 0.001459551981 -4.720880458e-05)
(1.002926703 0.001829211423 -6.338432536e-05)
(1.002848451 0.002294844199 -8.163573689e-05)
(1.002751027 0.002880637119 -0.0001032849584)
(1.002626338 0.003616829254 -0.0001295106854)
(1.002464773 0.004541549745 -0.000161655531)
(1.002253898 0.005702774651 -0.0002012914235)
(1.001977215 0.007160718894 -0.0002502876657)
(1.001612781 0.008990881109 -0.0003108797658)
(1.001131336 0.01128803678 -0.0003857853791)
(1.000493672 0.01417130702 -0.000478360272)
(0.9996469574 0.01779070366 -0.0005927298889)
(0.9985200846 0.02233615574 -0.0007341541727)
(0.997014319 0.02804916814 -0.0009101072453)
(0.994999463 0.03524664378 -0.001126352151)
(0.9922532077 0.04433030444 -0.001392612071)
(0.9885725251 0.05595956317 -0.001647094768)
(0.9832142017 0.07069056295 -0.001927837696)
(0.9764636461 0.09078717943 -0.001713469577)
(0.9694105339 0.1136806599 -0.001422768978)
(0.9589688586 0.1460577451 -6.196944788e-06)
(0.9483875271 0.1745587152 0.0009763428263)
(0.9301505394 0.2061391545 -0.003148935458)
(0.9129481368 0.2334246106 -0.01056980625)
(0.9062316027 0.2718792371 -0.007600622491)
(0.8832361991 0.2902841818 0.002560327815)
(0.8389001688 0.3139670683 -0.003321881069)
(0.8501668684 0.34359294 -0.01297075476)
(0.8198479274 0.3389133674 -0.01125793905)
(1.006195195 -0.0004921884413 -0.000897150507)
(1.037341945 -0.003397672297 -0.01550503968)
(1.05854334 -0.008060592485 5.067276715e-05)
(1.037123871 -0.01070758805 0.02427216556)
(1.020691088 -0.01077929285 0.02578833177)
(1.011021699 -0.007610804525 0.01427960375)
(1.006650107 -0.003763776797 0.005242641768)
(1.004389492 -0.001399799441 0.001560389664)
(1.003710495 -0.0003771952955 0.0005290341897)
(1.003561782 0.0001231488515 0.000233929784)
(1.003441571 0.0004456646082 0.0001232561088)
(1.003354319 0.0006788677023 7.691340916e-05)
(1.003321392 0.0009029297453 5.940298618e-05)
(1.003321096 0.001155657825 5.787302672e-05)
(1.003332546 0.001458760141 6.457816909e-05)
(1.003353806 0.001833583799 7.677202944e-05)
(1.0033855 0.002303063129 9.417402597e-05)
(1.003426279 0.002893271507 0.000117397175)
(1.00347529 0.003635446167 0.0001475614827)
(1.003532049 0.004568561916 0.0001862485686)
(1.003595593 0.005741663326 0.0002355828058)
(1.003664006 0.007216465125 0.0002983405238)
(1.003733893 0.009070673174 0.0003780592798)
(1.00379952 0.01140215962 0.0004791913079)
(1.00385177 0.01433436316 0.0006073004941)
(1.003876987 0.01802336557 0.0007692268288)
(1.003855652 0.02266773079 0.0009731044152)
(1.003762515 0.02852145005 0.001228099859)
(1.003565446 0.03592097117 0.001542631172)
(1.003245707 0.04530252526 0.001920957993)
(1.002764775 0.05738192351 0.002331237084)
(1.00226473 0.07293258062 0.002712926929)
(1.001152378 0.09408325278 0.002649347759)
(0.9980236162 0.120067188 0.002046714236)
(0.9903465323 0.1503095756 0.001450171294)
(0.9811778961 0.181052942 0.00185594149)
(0.9671347733 0.2136454793 0.001916475547)
(0.949022059 0.2430633498 -0.0008027003533)
(0.923296301 0.283307259 -0.001859872561)
(0.9066618274 0.3133906999 0.001200462153)
(0.8665592759 0.3427696475 -0.005001852327)
(0.8643616482 0.3709850149 -0.01013832784)
(0.8145882755 0.3797101198 -0.00249108958)
(0.8240486356 0.4189401187 0.00133637593)
(0.7653911909 0.4017860067 -0.006563851001)
(1.010160871 -0.002100453741 -0.0005281550401)
(1.045198916 0.002914523709 -0.02060460561)
(1.053883315 -0.005935243909 0.001737136281)
(1.05110372 -0.001498131313 0.01963974747)
(1.033454779 0.0044782213 0.02510815848)
(1.020107217 0.004280777488 0.01649051828)
(1.01179864 0.002319210584 0.006172326455)
(1.007008204 0.001334285606 0.00132418069)
(1.005023324 0.0009580050856 0.0001218106102)
(1.004219757 0.0007828791993 1.934101315e-06)
(1.003804666 0.000760164217 5.124373523e-05)
(1.00361637 0.0008374976551 8.038239506e-05)
(1.003546076 0.001002578012 0.0001003277063)
(1.003567271 0.001237773525 0.0001220277442)
(1.003636069 0.001541649908 0.0001487320591)
(1.003737016 0.001928792181 0.000183434047)
(1.003870938 0.002419148663 0.0002286683709)
(1.004041035 0.003038451007 0.0002868101416)
(1.004252769 0.003819348967 0.000360850149)
(1.004514043 0.004803221876 0.0004547444946)
(1.004834616 0.006042523056 0.0005736167265)
(1.005226032 0.007603660547 0.0007239999099)
(1.005701733 0.009570642824 0.000914174548)
(1.00627718 0.01204977442 0.001154596181)
(1.006970016 0.01517584521 0.001458367575)
(1.007800694 0.0191202815 0.001841734487)
(1.008793507 0.02410237657 0.002324362166)
(1.009984123 0.03040366527 0.002929481471)
(1.011420589 0.03839704429 0.003677967204)
(1.013258262 0.04855744027 0.004585768212)
(1.015591905 0.06168074811 0.005543137092)
(1.019507046 0.078596464 0.00635636875)
(1.022904383 0.1025596913 0.005586732961)
(1.022758287 0.1339582674 0.003440047636)
(1.017387512 0.1689751439 0.001050394259)
(1.007867607 0.2060343785 -0.000387570015)
(0.9983811204 0.2406357116 -0.000419987963)
(0.9846537273 0.2853315677 -0.00193643067)
(0.9615248702 0.3193396199 -0.003972408337)
(0.9450993049 0.339138017 -0.003167168213)
(0.91260564 0.3622383015 -0.00448373218)
(0.8810256843 0.3986733878 -0.004614205523)
(0.853602371 0.4185901281 -0.0007900527052)
(0.8083717794 0.445710789 -0.002786376952)
(0.8133426958 0.4656043337 -0.005604917635)
(0.726780554 0.4485363027 0.002879876605)
(1.022731638 -0.01586372487 0.01330228192)
(1.008908827 -0.04097686343 -0.01321251201)
(1.004742525 -0.0364411326 -0.02291185593)
(1.007608036 -0.01544880526 -0.01140519264)
(1.007690096 -0.001879788692 -0.0005037706539)
(1.005060402 0.001593265853 0.00171817564)
(1.003252083 0.001842354589 0.001258117349)
(1.002881741 0.001277074734 0.0006048926099)
(1.00301923 0.0008787763514 0.0002938622462)
(1.003155143 0.0007810141073 0.0002321696999)
(1.003295781 0.0008361862483 0.0002459817906)
(1.003439911 0.0009966118952 0.0002967217294)
(1.003605631 0.001232644462 0.0003678728863)
(1.003808903 0.001542565677 0.000459156534)
(1.004062596 0.00193722701 0.0005754330605)
(1.004379301 0.002436019742 0.0007230145314)
(1.00477379 0.003065578586 0.0009097789997)
(1.005264293 0.003860074176 0.001145748197)
(1.005873166 0.00486296951 0.001443823306)
(1.006627746 0.006129616719 0.001820458393)
(1.007561378 0.007730630205 0.002296493565)
(1.008714653 0.00975627773 0.002898437403)
(1.010137198 0.01232233768 0.003660080028)
(1.011890656 0.01557802866 0.004624416527)
(1.014052395 0.01971712803 0.005845908612)
(1.016731118 0.02499290406 0.007394463125)
(1.020061111 0.03174457962 0.009353296881)
(1.024404431 0.04041493368 0.01184495943)
(1.02993691 0.05169366695 0.01482552467)
(1.039889768 0.06634719507 0.01832951503)
(1.050111388 0.08683258071 0.01850003987)
(1.054035591 0.1140909715 0.01512469228)
(1.048104024 0.1469871984 0.01095338167)
(1.037902158 0.1838381856 0.0104448425)
(1.025472466 0.2168836163 0.006066291253)
(1.038361207 0.2604524765 -0.0006605658673)
(0.9778479897 0.3217641181 0.004979087535)
(0.9634975242 0.3758966412 0.007511276435)
(0.9425776699 0.4036008823 0.006268685112)
(0.9162853183 0.4292143111 0.001864824608)
(0.8866625755 0.4476045055 0.0005690922278)
(0.8342563722 0.4775438675 -0.003217645904)
(0.8204263507 0.4977854277 -0.005069121401)
(0.7456796932 0.5030988526 -6.937124765e-05)
(0.7577358401 0.5498575308 -0.003509380667)
(0.6674304837 0.4949956763 -0.01458739775)
(0.9844859822 0.3425369909 0.01885614107)
(0.9618974997 0.3634320458 0.009555392008)
(0.9494611053 0.4177517918 0.006100222008)
(0.9305789493 0.4646028291 0.005897172813)
(0.9085849791 0.4947721111 0.004370238096)
(0.8766155647 0.5163146309 0.000125904171)
(0.838675815 0.5332973271 -0.002210004645)
(0.7825157879 0.550160655 -0.0006530901606)
(0.7356946538 0.5675681216 -0.009098088846)
(0.7428353723 0.5938438853 -0.01087488417)
(0.6153825705 0.5211583489 -0.001511993156)
(0.9678515598 0.4386588026 0.0206204962)
(0.9404901303 0.4550709595 0.006779331099)
(0.9087410545 0.5112021233 0.002211271448)
(0.8865967995 0.5601104446 0.001435042967)
(0.8563928264 0.5863224795 -9.303981299e-05)
(0.8188429716 0.5985771675 -0.0002718437369)
(0.7647093932 0.6151144736 -0.006898423212)
(0.7209719015 0.6237937377 -0.009270411428)
(0.7049788912 0.6485953412 -0.003815541979)
(0.5877913546 0.5759281584 -0.007592513418)
(0.9203968235 0.5342080714 0.01401705418)
(0.8882582229 0.5475776602 -5.66198807e-05)
(0.8685571415 0.6198043724 -0.002897695151)
(0.8404624641 0.6524972281 0.001112511328)
(0.8043755199 0.6653376485 6.701747027e-05)
(0.7460806606 0.6761444566 -0.003579599963)
(0.6880427929 0.6849330104 -0.006654731181)
(0.6681912152 0.7092677227 -0.00918406769)
(0.5616756235 0.634751564 -0.01268997874)
(0.8120309564 0.6114774865 0.01051790104)
(0.8058946468 0.6650346985 0.00449090934)
(0.7932076463 0.7244673435 3.254724485e-05)
(0.763466022 0.7439534658 -0.002445992037)
(0.714668522 0.7509899061 -0.006782918854)
(0.6571420666 0.7514218543 -0.01040768044)
(0.6356492783 0.7708460006 -0.01182130404)
(0.5410612967 0.695224983 -0.01490272689)
(0.8093504091 0.6881431337 0.01534156099)
(0.7832346885 0.7063679651 0.002726657389)
(0.7615949489 0.7789558422 -0.004977525695)
(0.7295323092 0.8194927926 -0.006075376418)
(0.6864196577 0.8277072059 -0.007498984593)
(0.6359484726 0.8268045076 -0.008811465493)
(0.607264804 0.8317446397 -0.01120107753)
(0.5384078673 0.7756216153 -0.0126290472)
(0.730664532 0.7710538866 0.002592736225)
(0.7177403402 0.8362750266 -0.007512156934)
(0.6867329848 0.8714433127 -0.007296107489)
(0.6442124061 0.8880789836 -0.005676398912)
(0.6122912392 0.8949824202 -0.00491861126)
(0.5600660673 0.8624284249 -0.005301418866)
(0.5391293511 0.878136627 -0.00648744827)
(0.7386580584 0.9133454477 0.008621743026)
(0.6952000057 0.9319069743 -0.00491653048)
(0.6602385776 0.9372194067 -0.005607043787)
(0.6123688545 0.9494280237 -0.003960538022)
(0.5928754006 0.9580402347 -0.002068891466)
(0.5413752057 0.9043585089 -0.01407347175)
(0.6739687489 0.8985684137 0.006332790797)
(0.6718329665 0.9750497969 -0.007430365182)
(0.6475513913 1.005501329 -0.007285320709)
(0.6150579645 1.005357062 -0.005237495591)
(0.5790482848 0.9933501144 -0.003075152965)
(0.5590684802 1.007562353 -0.004696890702)
(0.4875425382 0.9075140667 -0.006801522188)
(0.6426309063 0.9616189536 0.007154601943)
(0.6306069857 1.018561295 -0.003504847827)
(0.6027995539 1.043504545 -0.005552541278)
(0.5676770702 1.032227691 -0.00436654165)
(0.542796648 1.036046143 0.002351956676)
(0.4943354279 0.9783378651 0.004536356836)
(0.4705590318 0.9773635879 0.004926883222)
(0.6331678611 1.080061955 0.009660791375)
(0.5972010767 1.091276172 -0.004370992295)
(0.5673660975 1.083454559 -0.005967841428)
(0.5301623042 1.080376445 0.002694068695)
(0.5049201446 1.051694682 0.008329888814)
(0.4655186911 0.9844763993 -0.004528272438)
(0.6094672976 1.107335647 -0.009138366383)
(0.5598931948 1.112484372 -0.01649312148)
(0.5377967002 1.122022749 -0.01055381361)
(0.507768603 1.111034805 -0.001879635122)
(0.4778357767 1.075663233 0.008189846269)
(0.4491602483 1.064415424 0.01004793708)
(0.3850263134 0.9773255127 0.01586677216)
(0.5506450181 1.16609626 0.002106433135)
(0.5188178849 1.164087715 -0.005076742344)
(0.494762191 1.147771529 -0.002149702855)
(0.4562805033 1.115097546 0.003725094172)
(0.4338564232 1.104523459 0.01411370032)
(0.3840894481 1.036997028 0.002022026736)
(0.519049831 1.188622686 -0.02093274089)
(0.4668636112 1.175818582 -0.02009251338)
(0.4478588774 1.175073002 -0.007085685023)
(0.4217317877 1.154893583 -0.001502977544)
(0.4129742361 1.121831887 0.01295903872)
(0.3870554236 1.074281653 -0.005477782592)
(0.4568593493 1.220884785 -0.004789216507)
(0.4294958696 1.207402007 -0.005418246906)
(0.3988515979 1.179577725 -0.002099889)
(0.3707526977 1.144768604 0.007193627391)
(0.3396415178 1.11610276 0.01631370866)
(0.2911307566 1.030486351 0.02449911311)
(0.4248997859 1.228655043 -0.02782423936)
(0.3744734887 1.210717441 -0.02383145481)
(0.35840419 1.202972635 -0.005225350415)
(0.3376549385 1.174192754 0.001354228911)
(0.3208183786 1.139819099 0.02311368842)
(0.2763491724 1.053598677 0.01348699434)
(0.3542133693 1.242644798 -0.01134059495)
(0.3279018013 1.217648361 -0.007546191503)
(0.3038367354 1.196760255 -0.0005543147493)
(0.2949075554 1.159302921 0.02415206258)
(0.2579035359 1.098598701 0.006052367604)
(0.3364618819 1.27722738 -0.01750118891)
(0.2846210622 1.233263757 -0.01569904353)
(0.2657938172 1.212370037 -0.002176184426)
(0.2644889378 1.173643476 0.01647814344)
(0.246083925 1.142842115 -0.001596564805)
(0.2849148954 1.272761746 -0.0214960661)
(0.2392209174 1.248476122 -0.02013723267)
(0.2248698534 1.223849908 -0.004065754726)
(0.210424577 1.189307146 0.006904518609)
(0.1910449977 1.157377893 0.02229366235)
(0.1581322912 1.051051901 0.03208757404)
(0.2239651465 1.276508936 -0.01950572613)
(0.195963986 1.262980336 -0.01789303627)
(0.189034099 1.235056688 -0.004798263791)
(0.168625501 1.208524406 0.001690610441)
(0.1707725406 1.175352294 0.03360094544)
(0.14346895 1.080882838 0.02632439988)
(0.1676252307 1.288357767 -0.01855146639)
(0.1552858065 1.272271344 -0.01400659413)
(0.1525177891 1.244684518 -0.005024466195)
(0.1386059976 1.218848816 -0.000146218617)
(0.1504053965 1.18625192 0.03581396955)
(0.1249776782 1.129599131 0.02240873326)
(0.1233965517 1.293348741 -0.01997060096)
(0.118815671 1.273293795 -0.01209491024)
(0.1183648277 1.249147569 -0.004825042201)
(0.1107107709 1.224297332 0.0004341294895)
(0.1188414913 1.199968744 0.02634716145)
(0.1044314869 1.161133812 0.02185298434)
(0.08936117085 1.285987269 -0.02142007177)
(0.08703801711 1.267747014 -0.01150453535)
(0.08716884083 1.24931244 -0.003971276327)
(0.08315292456 1.228979736 0.001908153229)
(0.08724566906 1.211044413 0.01470695266)
(0.08221983476 1.187244979 0.02091699141)
(0.06586818025 1.276392366 -0.01909000075)
(0.06749755002 1.26233515 -0.01010834634)
(0.06605185374 1.248386904 -0.002939387546)
(0.06346698639 1.233207716 0.002485381007)
(0.06588341392 1.219677242 0.007989157162)
(0.06131268077 1.205249851 0.01629846734)
(0.05082263669 1.270617893 -0.01557464977)
(0.05471135278 1.259218449 -0.00825015106)
(0.05222695396 1.248166084 -0.002165907885)
(0.05030547987 1.236676801 0.002150101529)
(0.05180526174 1.22614635 0.005465498461)
(0.04664955649 1.214650013 0.01235590642)
(0.0402097488 1.267170426 -0.01230680748)
(0.04428874891 1.25735765 -0.006460013026)
(0.0415930186 1.248450529 -0.001655493768)
(0.04026195269 1.239338327 0.001573871429)
(0.0414378902 1.230792665 0.004673015397)
(0.03648112857 1.220643814 0.00974070483)
(0.0317374988 1.263961255 -0.009493975404)
(0.03533162031 1.255755859 -0.004977942089)
(0.03289904634 1.248666387 -0.001289740392)
(0.03207223079 1.241319607 0.001150553099)
(0.03318316614 1.234379103 0.00410028061)
(0.02892162889 1.225818506 0.007801139057)
(0.02493873012 1.260776311 -0.007287983108)
(0.02802284409 1.254242633 -0.003855336559)
(0.02600370883 1.248670234 -0.001007068677)
(0.0255084322 1.242777071 0.0008913844334)
(0.02654807563 1.237237489 0.003408607903)
(0.02304103264 1.230323252 0.00624947195)
(0.01965375649 1.258030663 -0.005664714273)
(0.02225517869 1.252949656 -0.0030234118)
(0.02062916413 1.24858433 -0.0007908577906)
(0.02031905516 1.243872655 0.0007084133877)
(0.02123945715 1.239485985 0.002733536907)
(0.01838529769 1.233929933 0.005006753941)
(0.01554997223 1.255844112 -0.004454134404)
(0.01770230754 1.251912673 -0.00239124522)
(0.01640144334 1.248482785 -0.0006264102692)
(0.0161966492 1.244707241 0.0005615322241)
(0.01698948263 1.241230808 0.002175545568)
(0.01467103033 1.236721097 0.004011278575)
(0.01232205809 1.254108387 -0.003515150611)
(0.01408353391 1.251077787 -0.001895877457)
(0.0130470411 1.248371507 -0.0004983972773)
(0.01290763343 1.245340116 0.0004424347379)
(0.01358127956 1.242582345 0.001735659278)
(0.01170526113 1.238890033 0.003210220431)
(0.009771098908 1.252711632 -0.00277451285)
(0.01120533056 1.250393554 -0.00150300396)
(0.01038098268 1.248252787 -0.0003965370617)
(0.01028554193 1.245819359 0.0003473395123)
(0.01085288299 1.243631923 0.001387442798)
(0.009340080606 1.240592182 0.002565709435)
(0.00775666868 1.25158575 -0.002191024628)
(0.008918270747 1.249831772 -0.001191667346)
(0.008266554471 1.248131312 -0.0003149840686)
(0.008195889164 1.246183832 0.0002728434906)
(0.008666714246 1.244451156 0.001109150673)
(0.007455809211 1.241931943 0.002048597419)
(0.006160762669 1.250680446 -0.001731678482)
(0.00709514914 1.24937345 -0.0009447891332)
(0.006580456563 1.248028483 -0.000246101899)
(0.006533002052 1.24646149 0.0002171540026)
(0.006922600563 1.245089971 0.0008878342102)
(0.005954021129 1.242985576 0.001635470489)
(0.004894037407 1.249956016 -0.001369917)
(0.005637904229 1.249003503 -0.0007486798597)
(0.005232077075 1.247940301 -0.000189311719)
(0.005213395601 1.246689231 0.0001765806438)
(0.005533149025 1.245589589 0.0007122869968)
(0.004754578797 1.243815416 0.001306775449)
(0.003889968705 1.249378165 -0.001085723275)
(0.004483140138 1.248707198 -0.0005943851071)
(0.004162161793 1.24786913 -0.0001469270236)
(0.004156224847 1.246866223 0.0001436385127)
(0.00441723268 1.245984352 0.0005709353955)
(0.003793004183 1.244472249 0.001044579865)
(0.003092374217 1.248914535 -0.0008621280061)
(0.003568508533 1.248467692 -0.0004727522455)
(0.003314702518 1.247806377 -0.0001160824034)
(0.003310852699 1.247001374 0.0001155449418)
(0.003522033122 1.246294496 0.0004565851973)
(0.003022979212 1.244992708 0.0008348655424)
(0.002457544759 1.248539909 -0.0006853403034)
(0.002841548025 1.248272501 -0.0003759373829)
(0.002641439802 1.247749902 -9.273470011e-05)
(0.002637567576 1.247104099 9.214129085e-05)
(0.002807579352 1.246537251 0.0003645757253)
(0.002408403368 1.245405824 0.0006670528656)
(0.001952965698 1.248236791 -0.0005450912411)
(0.002263071449 1.248113657 -0.0002985976239)
(0.002105333202 1.24770095 -7.437522691e-05)
(0.002101808226 1.24718407 7.320953234e-05)
(0.002238480079 1.246728466 0.0002907798449)
(0.00191876605 1.245735145 0.0005327252232)
(0.001552647099 1.247992075 -0.0004337038929)
(0.001802694948 1.247984842 -0.0002370154492)
(0.001678049583 1.247659945 -5.969197397e-05)
(0.001675113 1.247247382 5.814261809e-05)
(0.001784939655 1.246880081 0.0002316543939)
(0.001528901677 1.245998167 0.0004252392019)
(0.001235072343 1.247795191 -0.0003452125794)
(0.001436049638 1.24788064 -0.0001881759274)
(0.001337309404 1.247626124 -4.786425141e-05)
(0.001335001769 1.247297478 4.62331609e-05)
(0.001423241332 1.24700045 0.0001844189697)
(0.001218506555 1.246207853 0.0003393463825)
(0.0009828670624 1.247637506 -0.0002748930505)
(0.001143872702 1.2477967 -0.0001495322146)
(0.001065529345 1.247598504 -3.833388207e-05)
(0.001063787098 1.24733694 3.680899091e-05)
(0.001134656914 1.247095882 0.0001468061922)
(0.0009712565412 1.246374511 0.0002707784238)
(0.0007823695648 1.247511866 -0.0002189972899)
(0.0009110268695 1.247729511 -0.0001189814689)
(0.0008487208147 1.247576224 -3.072617746e-05)
(0.0008474090078 1.247368033 2.927557762e-05)
(0.0009042685539 1.247171484 0.0001168827114)
(0.0007740723123 1.246506644 0.0002160345931)
(0.0006225660028 1.247412005 -0.0001745542828)
(0.0007255858063 1.247676059 -9.48847857e-05)
(0.0006759801946 1.247558589 -2.478201103e-05)
(0.0006747969634 1.247392656 2.316283111e-05)
(0.0007203445367 1.247231342 9.304886351e-05)
(0.0006166922089 1.246611193 0.0001723515735)
(0.0004957370094 1.24733362 -0.000139451008)
(0.0005777056683 1.247633849 -7.586506151e-05)
(0.0005378037182 1.24754492 -2.033103623e-05)
(0.0005367710581 1.24741237 1.804121227e-05)
(0.0005729733043 1.247278895 7.398039102e-05)
(0.0004907465793 1.246693772 0.0001375069952)
(0.0003931634878 1.247271432 -0.0001117114265)
(0.0004603548949 1.247600851 -6.116782615e-05)
(0.0004288417308 1.247534866 -1.733784783e-05)
(0.0004265597713 1.247428431 1.359165807e-05)
(0.0004552131941 1.24731666 5.871762732e-05)
(0.0003896916028 1.246758824 0.0001099984382)
(0.0003126464481 1.247224705 -9.075459332e-05)
(0.0003663648922 1.247575119 -4.974370929e-05)
(0.0003400259804 1.247527476 -1.58127263e-05)
(0.0003377344819 1.247441765 9.315680329e-06)
(0.0003594445037 1.247347071 4.625144808e-05)
(0.0003085758278 1.246809819 8.850324555e-05)
(0.0002453403152 1.247187496 -7.494350424e-05)
(0.0002924583574 1.247556353 -4.140829961e-05)
(0.000272212226 1.24752265 -1.563891176e-05)
(0.0002665761783 1.247452514 4.888479126e-06)
(0.0002819534738 1.247371523 3.617595046e-05)
(0.0002422125449 1.246851123 7.157861795e-05)
(0.0001903660581 1.24715863 -6.40896204e-05)
(0.000231596962 1.24754217 -3.544270572e-05)
(0.0002180555202 1.247518248 -1.66582118e-05)
(0.0002094814886 1.247461668 2.185899889e-07)
(0.0002205032297 1.247391732 2.790496528e-05)
(0.0001891650184 1.246885632 5.824108541e-05)
(0.0001469802884 1.247137573 -5.724503003e-05)
(0.0001880917175 1.247535025 -3.201553628e-05)
(0.0001740003095 1.247514529 -1.791102897e-05)
(0.0001635387666 1.247466317 -4.547672413e-06)
(0.0001698124365 1.24741182 2.020916222e-05)
(0.0001488519719 1.246916787 4.74720477e-05)
(0.0001111726717 1.247122745 -5.131736906e-05)
(0.0001427240574 1.247531794 -2.980135606e-05)
(0.0001377230807 1.247512298 -1.803080342e-05)
(0.0001341651227 1.247480711 -6.257550824e-06)
(0.0001391773276 1.247430938 1.4170554e-05)
(0.0001208773035 1.246947109 3.869730139e-05)
(7.971460896e-05 1.247113792 -4.596039656e-05)
(0.0001112630541 1.247540897 -2.978969749e-05)
(0.0001044593582 1.247533295 -1.772671399e-05)
(0.0001145956405 1.247502987 -8.349294164e-06)
(0.0001161860262 1.247462381 6.717265512e-06)
(0.0001005033459 1.246983076 2.969397792e-05)
(6.113500707e-05 1.247121695 -4.299364071e-05)
(8.601832238e-05 1.247567016 -3.240150035e-05)
(7.698252244e-05 1.247564373 -2.317834521e-05)
(0.0001008017525 1.247541714 -1.676064908e-05)
(9.663433993e-05 1.247510206 -4.000798483e-06)
(8.495005431e-05 1.247025635 2.074465917e-05)
(5.313319889e-05 1.24714708 -4.553668962e-05)
(6.632662164e-05 1.247625411 -4.036461859e-05)
(4.977415061e-05 1.247603846 -3.973862096e-05)
(9.411358665e-05 1.247590848 -3.543782462e-05)
(8.037954232e-05 1.24758404 -2.061939753e-05)
(7.193831928e-05 1.247075554 5.006528953e-06)
(7.57349774e-05 1.247248827 -4.732799255e-05)
(4.763468106e-05 1.247746715 -5.608044426e-05)
(8.52704002e-06 1.247679879 -6.791895505e-05)
(0.0001056347915 1.247677071 -6.437031778e-05)
(6.984487582e-05 1.247714106 -4.308796843e-05)
(3.289687134e-05 1.247204679 -9.266522606e-06)
(-4.125218662e-06 1.24724837 -4.477435145e-05)
(4.182083475e-06 1.247978739 -0.0001179458364)
(-8.704841257e-05 1.247737386 -0.000143770359)
(0.0001763882197 1.247739981 -0.0001407564624)
(8.746678757e-05 1.247952617 -0.0001092985625)
(0.0001017670621 1.247215928 -1.947940432e-05)
(0.0007211595523 1.248312869 -0.0006090344289)
(-8.906031689e-05 1.248375456 -0.0001547573696)
(-0.0001813432051 1.248111964 -0.0002475944664)
(0.000249932851 1.248110102 -0.0002441435935)
(0.0001563782022 1.248356797 -0.0001475402892)
(-0.000635624308 1.248283612 -0.0005947699195)
(-0.00212068402 1.247868547 0.0002959428714)
(-0.0006382258546 1.249105385 -0.001034800409)
(-0.0008693793658 1.247716572 -0.0005821959799)
(0.000917587234 1.247701 -0.0005787345867)
(0.0006861511507 1.249085819 -0.001033805773)
(0.002188176627 1.247832452 0.0003079696387)
(0.005664334837 1.260735971 -0.003459925486)
(2.278656444e-05 1.250201707 0.001523820848)
(-0.0005431736501 1.249821502 -0.001656946013)
(0.0005611116422 1.249800127 -0.001649017097)
(1.934177114e-05 1.250170406 0.001519912127)
(-0.005606289903 1.260694093 -0.003442272138)
(-0.008907992853 1.23089 -0.02405326911)
(-0.01053379103 1.251355259 -0.008244386774)
(-0.0008778614683 1.247194305 0.0007612828293)
(0.0008595058456 1.247180152 0.0007601190794)
(0.0105316945 1.251146966 -0.008195130228)
(0.008987267326 1.230849557 -0.02403582429)
(-0.006121823826 1.245329935 -0.02012442988)
(-0.005278862843 1.245297126 -0.01327383358)
(0.005042854736 1.245357972 -0.01326054876)
(0.006073305013 1.245180601 -0.02001392818)
(-0.01099040682 1.237482223 -0.006275641058)
(-0.003206143877 1.229791365 -0.009410257251)
(0.004251089947 1.23095359 -0.01053015432)
(0.002580206166 1.234588227 -0.0149521556)
(1.039324881 0.009130885617 -0.01206678583)
(1.046675415 0.007084433727 -0.015217768)
(1.034396653 0.006101106045 -0.01235851923)
(1.019061464 0.005832725472 -0.002360123431)
(1.010026118 0.00360028265 0.001470056874)
(1.004117504 0.001142389744 0.001060780642)
(1.002366656 0.0002584779881 0.000261491262)
(1.002170996 0.0001843536351 -3.409564491e-05)
(1.00211682 0.0003139256973 -0.0001865431169)
(1.00202681 0.0004662149047 -0.000274338429)
(1.001872009 0.000609924646 -0.0003486776919)
(1.001648611 0.000768760103 -0.0004377689708)
(1.001350094 0.0009621909668 -0.0005509136246)
(1.000967658 0.001203965331 -0.000692497061)
(1.000484304 0.001507284374 -0.000868922413)
(0.9998745614 0.001887244389 -0.001088958648)
(0.9991061328 0.00236255596 -0.001363501622)
(0.9981386311 0.002956584757 -0.00170601757)
(0.9969210538 0.003698225546 -0.002133134889)
(0.9953890096 0.004623156526 -0.002665328185)
(0.9934613218 0.005775396809 -0.003327766919)
(0.9910354891 0.00720911505 -0.004151325182)
(0.9879816537 0.008990820508 -0.005173757084)
(0.9841343034 0.01120207575 -0.006440907632)
(0.9792801684 0.01394287174 -0.008008304781)