/*--------------------------------*- C++ -*----------------------------------*\
| =========                 |                                                 |
| \\      /  F ield         | OpenFOAM: The Open Source CFD Toolbox           |
|  \\    /   O peration     | Version:  4.1                                   |
|   \\  /    A nd           | Web:      www.OpenFOAM.org                      |
|    \\/     M anipulation  |                                                 |
\*---------------------------------------------------------------------------*/
FoamFile
{
    version     2.0;
    format      ascii;
    class       volScalarField;
    location    "2";
    object      V;
}
// * * * * * * * * * * * * * * * * * * * * * * * * * * * * * * * * * * * * * //

dimensions      [0 3 0 0 0 0 0];

internalField   nonuniform List<scalar> 
24850
(
0.4761192194
0.4561574666
0.464021852
0.464936957
0.4647718186
0.464678405
0.4646351278
0.4646150035
0.4646050993
0.464599901
0.4645970312
0.4645953912
0.4645944339
0.4645938672
0.4645935132
0.4645932659
0.4645930452
0.4645927723
0.4645923549
0.464591631
0.4645902997
0.4645877582
0.4645828592
0.4645735455
0.4645564805
0.4645269373
0.4644793853
0.4644101574
0.4643341892
0.4644776259
0.4624847326
0.4526964804
0.4114759751
0.2210822985
0.04342809732
0.8447495215
0.8086782232
0.7492347118
0.7546334335
0.7546733911
0.7541361315
0.7538883105
0.7537768971
0.7537239785
0.7536971175
0.7536827416
0.7536747478
0.7536701794
0.7536675116
0.753665925
0.7536649548
0.7536643136
0.7536638171
0.7536632972
0.7536625846
0.7536614149
0.7536593047
0.7536553168
0.7536476248
0.7536328155
0.7536051841
0.7535567219
0.7534795592
0.7533740761
0.7532743233
0.7533547372
0.7515122904
0.7418252689
0.7095931666
0.6756894701
0.4917306476
0.4725532293
0.4270123552
0.2308223132
0.09054230833
0.9220193878
0.8909273959
0.8902981155
0.8878057227
0.8861913655
0.8852932536
0.8849122473
0.8847461983
0.8846688686
0.8846300948
0.8846094357
0.8845979353
0.8845913371
0.884587475
0.8845851808
0.8845837913
0.8845828925
0.8845822396
0.8845816106
0.8845808062
0.8845795208
0.8845772476
0.8845729974
0.8845648491
0.8845490586
0.8845188109
0.8844629042
0.8843658449
0.8842122109
0.8840010868
0.8838039508
0.8824318072
0.877178162
0.864230969
0.8351779928
0.797065553
0.7675544124
0.7224174405
0.6818212882
0.4861265094
0.4325243961
0.232338994
0.09674424112
0.9208246486
0.8909586689
0.8905960868
0.8881927586
0.8866219615
0.8857480177
0.8853795533
0.8852192677
0.8851442674
0.8851063256
0.8850859352
0.8850745149
0.8850679347
0.8850640846
0.8850617991
0.8850604181
0.8850595431
0.8850589275
0.8850583623
0.8850576709
0.8850565699
0.8850546169
0.8850509086
0.8850436469
0.8850291866
0.8850004073
0.8849441938
0.8848379647
0.8846437461
0.884288745
0.8835804016
0.8826640838
0.8815382637
0.8793603169
0.8735761491
0.8667362246
0.8647066398
0.859732593
0.8336219118
0.7907314227
0.7319983602
0.6744719276
0.4441924775
0.2331087474
0.07240901111
0.8442519629
0.8090719649
0.7498261692
0.755361716
0.7554892405
0.7550032767
0.7547818518
0.7546822278
0.7546339199
0.7546086605
0.754594798
0.7545869575
0.7545824358
0.7545797906
0.7545782238
0.7545772796
0.754576685
0.7545762618
0.7545758781
0.7545753917
0.7545746185
0.7545732232
0.754570556
0.7545652437
0.7545542801
0.7545311261
0.754481754
0.7543767952
0.7541539367
0.7536627108
0.7524353272
0.75145814
0.7521769041
0.7550176145
0.7609695468
0.7737914686
0.7968200432
0.8373286721
0.8652322301
0.8730332715
0.8646808339
0.8272418124
0.7466197388
0.6440932588
0.2679805685
0.47659836
0.4566146238
0.4645414239
0.4655082887
0.4653754123
0.4652985577
0.465262413
0.4652449312
0.4652358875
0.4652309508
0.4652281578
0.4652265455
0.4652256008
0.4652250487
0.4652247142
0.4652244978
0.4652243228
0.4652241358
0.4652238611
0.4652234072
0.465222616
0.4652212187
0.465218625
0.4652132406
0.4652005756
0.4651684806
0.4650870442
0.4648880475
0.4644084853
0.4630840105
0.4618390081
0.4623330206
0.4651942566
0.4712795392
0.4788620277
0.4922715293
0.6922703701
0.7540407625
0.826206218
0.8668889879
0.8795070562
0.8619529131
0.8014173502
0.7141404917
0.4501307125
0.2367573127
0.2354612777
0.4442430624
0.6756650135
0.7475900609
0.8256328953
0.8638322838
0.871393874
0.8349148166
0.7493213817
0.6420331633
0.2625701508
0.2326024489
0.439289627
0.673700377
0.7499710194
0.8309288039
0.8662867372
0.857052505
0.7908050156
0.6663818949
0.265370401
0.2341873897
0.4455257512
0.7033310738
0.7894859864
0.8533723677
0.8601099212
0.7956644684
0.6679983529
0.2653330435
0.2617527138
0.6296163074
0.7389832901
0.8270964921
0.8537675524
0.7948847622
0.6679765208
0.2653333815
0.2284465478
0.4407391997
0.7115617158
0.8074485446
0.8537626286
0.7955919834
0.6663169529
0.26248904
0.2734432431
0.7115722481
0.8270757533
0.860086547
0.7906863768
0.6419652766
0.2367519602
0.4408258416
0.7391051035
0.8533847498
0.8570457738
0.7493071275
0.450122931
0.2285616842
0.6297152891
0.7894798337
0.8662884497
0.8349053614
0.714133756
0.2679792433
0.261754222
0.7033352079
0.8309344458
0.8713922831
0.8014146804
0.6440896254
0.2331072135
0.4455282621
0.7499755612
0.8638339181
0.8619540287
0.7466166689
0.4441900458
0.2341876092
0.6737013308
0.8256337401
0.8795078946
0.8272386995
0.6744685272
0.2323379548
0.4392893118
0.7475904079
0.8668898694
0.864677565
0.7319957015
0.4325228107
0.2326020082
0.6756641538
0.8262055765
0.8730278135
0.7907316444
0.4861255252
0.4442419704
0.7540372116
0.8652254207
0.8336201128
0.681820871
0.2308228512
0.2354604304
0.6922637595
0.837321539
0.8597296513
0.7224204381
0.4270158581
0.4922588498
0.7967988526
0.8647031446
0.7675634577
0.4725654704
0.4788342226
0.7737487665
0.8667261118
0.797091589
0.4917626645
0.4712165636
0.7608765095
0.873538525
0.8352271309
0.6757753327
0.2211143655
0.4650721526
0.754835895
0.879283279
0.8643188873
0.7097663215
0.4115835096
0.4621283101
0.7518759987
0.8814147875
0.8773306468
0.7421178579
0.4528957081
0.4615330828
0.7510138075
0.8824367663
0.8826747333
0.7519557987
0.4627907146
0.4626739308
0.751843948
0.8832451217
0.8841339026
0.7539500133
0.4648912794
0.4639094705
0.752945499
0.8839010446
0.8843914404
0.7539928479
0.4648344283
0.4643278863
0.7533487018
0.8842186037
0.8846428717
0.7541795346
0.4649709175
0.4644918854
0.7535201345
0.8843898886
0.8848194621
0.7543364124
0.4650750667
0.464557033
0.7536005811
0.8844845716
0.8849274169
0.7544385668
0.4651390604
0.4645842696
0.7536425466
0.8845370316
0.8849866877
0.7544949457
0.4651736803
0.464600645
0.7536714863
0.8845685248
0.8850144297
0.7545170119
0.4651872129
0.4646211391
0.7537051409
0.8845942212
0.8850203034
0.7545087988
0.465181495
0.4646573056
0.753759376
0.8846260021
0.8850074383
0.7544664365
0.4651527508
0.464717924
0.7538465064
0.8846724511
0.8849761058
0.754383934
0.4650958349
0.4648048816
0.7539695078
0.8847376707
0.8849280305
0.7542620854
0.4650107305
0.464909509
0.7541178881
0.8848390123
0.8848375882
0.754114786
0.4649073282
0.465014383
0.7542675894
0.8849321207
0.8847386118
0.7539681598
0.4648037307
0.4651018246
0.7543931693
0.8849838561
0.8846760569
0.753846688
0.4647175863
0.4651626941
0.7544818958
0.8850209485
0.8846334284
0.7537614313
0.4646577655
0.4651982758
0.7545349962
0.8850437009
0.8846083718
0.7537107061
0.4646229133
0.4652158799
0.7545621622
0.8850557394
0.8845958179
0.7536849606
0.4646057622
0.4652233379
0.7545741976
0.8850613076
0.8845904409
0.7536737231
0.4645985723
0.4652260807
0.7545788776
0.8850636218
0.8845884981
0.7536694962
0.4645959952
0.4652269402
0.7545804448
0.8850645018
0.8845880103
0.7536682445
0.4645952592
0.4652269946
0.7545805869
0.8850647102
0.8845882226
0.7536683946
0.464595319
0.4652262577
0.7545793432
0.8850643057
0.8845891924
0.7536699895
0.4645961971
0.465223683
0.754575111
0.8850626345
0.8845917971
0.7536746928
0.4645989669
0.4652164784
0.7545637554
0.885058059
0.8845981922
0.753686659
0.4646064453
0.4651992837
0.7545376843
0.8850476241
0.8846123772
0.7537135754
0.4646240606
0.4651643716
0.7544863618
0.8850274639
0.884640087
0.7537662136
0.4646596702
0.4651046102
0.7544005886
0.8849946684
0.8846871084
0.7538546018
0.46472073
0.465019023
0.7542799627
0.8849501383
0.8847570003
0.7539813185
0.4648089335
0.4649173266
0.7541387733
0.8848693741
0.8848685171
0.75413688
0.4649159937
0.4648182993
0.7540054539
0.8847899148
0.884981096
0.7542998042
0.4650254136
0.4647417264
0.7539101756
0.8847653301
0.8850700385
0.754450039
0.4651214925
0.4647016177
0.7538769099
0.8847991485
0.8851817292
0.7545869412
0.465199652
0.4647086028
0.7539348718
0.8849383418
0.8853652488
0.7547413963
0.4652722556
0.4647806159
0.7541494935
0.8853023625
0.8857484062
0.7549965342
0.465370457
0.4649291464
0.7546586864
0.8861850926
0.8866354724
0.7555107538
0.4655199319
0.4639952141
0.7545830018
0.8877775602
0.8882288467
0.7554226232
0.4645725063
0.4561067446
0.7491197934
0.8902188929
0.8906817287
0.7499493604
0.4566674944
0.4760434416
0.8084144922
0.8906989152
0.8911808235
0.8093448087
0.4766756665
0.8442584217
0.9212441293
0.921580643
0.8447520309
0.05418992187
0.1052474488
0.1124770561
0.08873718237
0.5463762625
0.487368168
0.491639626
0.4921223061
0.491915906
0.4918238443
0.4917819767
0.4917621052
0.4917519739
0.4917464087
0.4917431892
0.4917412958
0.4917401694
0.4917394897
0.4917390623
0.4917387517
0.4917384585
0.4917380809
0.4917374752
0.4917363885
0.4917343337
0.4917303756
0.4917228087
0.4917087488
0.4916836323
0.4916399714
0.4915629939
0.4914164193
0.4911070774
0.4905168543
0.4812324137
0.4374385552
0.2367267363
0.09199450254
1.068431333
0.8916843878
0.9143322484
0.9189566786
0.9189311416
0.9183468827
0.9180679576
0.9179273444
0.9178541859
0.9178146883
0.9177924866
0.9177795661
0.9177718911
0.9177672748
0.9177644747
0.9177627302
0.9177615606
0.9177606216
0.9177596286
0.9177582387
0.9177559381
0.9177517777
0.9177438388
0.9177283399
0.9176980026
0.9176397757
0.9175321394
0.9173436995
0.9170347652
0.9165625826
0.9160140705
0.9078285418
0.8751711584
0.8599485729
0.6763727465
0.6231922064
0.531345101
0.4630785313
0.2468240649
0.9637191313
1.173869498
1.16677311
1.225572849
1.227384605
1.225850762
1.224576443
1.223933018
1.223595932
1.223413666
1.223311881
1.223253348
1.223218911
1.223198351
1.223185978
1.223178489
1.223173889
1.223170947
1.22316883
1.223166902
1.223164502
1.223160747
1.223154142
1.223142007
1.22311949
1.223078079
1.223003248
1.222870945
1.222642232
1.22225457
1.221604023
1.220617613
1.213479758
1.19260489
1.145075307
1.135987787
0.9368509254
0.9415777286
0.8908932523
0.893035246
0.6321936416
0.4908929636
0.2611281671
0.9519708364
1.07632024
1.039724636
1.016978673
1.008011762
1.004155737
1.002389348
1.001508571
1.001048052
1.000797444
1.000656329
1.000574723
1.000526623
1.000497929
1.000480678
1.000470249
1.000463888
1.000459883
1.000457137
1.000454819
1.000452181
1.000448251
1.000441503
1.000429274
1.000406769
1.000365662
1.000291991
1.000163842
0.9999486322
0.9995975942
0.999016829
0.9978752985
0.9941382877
0.9877070537
0.9901276188
1.234465189
1.224776491
1.249417236
1.201071186
1.188541704
0.9482201613
0.9052108587
0.8816774449
0.581237036
0.2746446442
0.9301104124
1.069292787
1.054561726
1.038028314
1.028772042
1.024246192
1.022072274
1.0209891
1.020426838
1.020122384
1.01995126
1.019852281
1.019793881
1.019758996
1.019738002
1.019725316
1.019717608
1.019712809
1.019709636
1.019707137
1.019704526
1.019700833
1.019694632
1.019683418
1.019662715
1.019624551
1.019555232
1.01943245
1.019221925
1.018872636
1.018301083
1.017308679
1.015102376
1.011622201
1.010310489
1.019010634
1.020113102
1.013994252
1.010264155
1.247590914
1.216812579
1.205786597
1.173916364
0.9061903885
0.903193023
0.5750723485
0.2734546518
0.9278858756
1.068340395
1.054477534
1.03823704
1.02908614
1.024610137
1.022462872
1.021393619
1.020838057
1.020536537
1.020366592
1.020268061
1.020209824
1.020174993
1.020154029
1.020141371
1.020133691
1.020128948
1.020125872
1.020123538
1.020121211
1.020118007
1.020112624
1.020102735
1.020084025
1.020048349
1.019980664
1.019854033
1.01962224
1.019209883
1.018504953
1.017401918
1.016191443
1.015511363
1.016083804
1.017755926
1.017598479
1.016888174
1.016396418
1.020602798
1.015226289
1.007041447
1.226191005
1.171639841
1.174653777
0.9263908694
0.8238732925
0.320658829
0.9491212911
1.075575834
1.039933228
1.017551159
1.008772355
1.005028307
1.003327033
1.002480905
1.002036978
1.001793556
1.0016553
1.001574772
1.001527066
1.001498522
1.001481348
1.001470979
1.001464697
1.001460824
1.001458303
1.001456376
1.001454421
1.001451681
1.001446977
1.001438155
1.001420927
1.001386528
1.001317055
1.001176743
1.000896449
1.000348143
0.9993149512
0.997587864
0.9965203181
0.9981989501
1.00348553
1.011075111
1.017792176
1.023101453
1.025159696
1.017599887
1.015580573
1.012117816
1.012108435
1.006440618
1.20906557
1.198264182
0.9626597266
0.9449419211
0.5818774146
0.2734878351
0.9642181114
1.173626062
1.167367356
1.226407577
1.228403717
1.22699892
1.225803294
1.22520167
1.224884077
1.224709945
1.224611272
1.224553872
1.22451986
1.224499471
1.224487184
1.224479761
1.224475271
1.22447249
1.22447065
1.224469196
1.22446763
1.224465374
1.224461498
1.224454253
1.22443989
1.224409602
1.224342604
1.224191318
1.223852844
1.223115131
1.221539607
1.218063405
1.215249972
1.217795537
1.22781332
1.242510313
1.258160724
1.231375116
1.256466094
1.013343933
1.010687178
1.010195393
1.014425088
1.013115293
1.024230629
1.264767819
1.199776603
1.192577596
0.9256999425
0.8121618718
0.3046526142
0.1195608611
1.068840622
0.8917282371
0.9145877292
0.9193459168
0.9193902732
0.9188393911
0.9185746803
0.9184394074
0.9183680895
0.9183292492
0.9183073197
0.9182945503
0.918286959
0.9182824053
0.9182796664
0.9182780064
0.9182769795
0.9182762897
0.9182757087
0.9182750379
0.918273969
0.9182719765
0.9182679401
0.9182593936
0.9182407187
0.9181994235
0.9181082579
0.9179090368
0.917473872
0.9164772462
0.9137682509
0.9113159082
0.9133043277
0.9220401245
0.9361524437
0.9547808197
0.9564349719
1.198399909
1.16964826
1.216265545
0.997684608
1.006315596
1.01017805
1.018665068
1.023753692
1.014819955
1.210165938
1.18395383
0.9757864979
0.8520325219
0.3147624827
0.04370677008
0.05768611653
0.5461226191
0.487361566
0.4917155636
0.4922317727
0.4920374029
0.4919488114
0.4919075939
0.4918877354
0.4918775827
0.4918720379
0.491868862
0.4918669994
0.4918658991
0.4918652451
0.4918648506
0.491864602
0.4918644099
0.4918641958
0.491863872
0.4918632928
0.4918622543
0.4918604413
0.4918573133
0.4918514435
0.49183796
0.4918009595
0.4916951862
0.4914055764
0.4906330649
0.4883499473
0.4862988441
0.4884021782
0.496712804
0.5153579232
0.5484389989
0.6430443428
0.9106991949
0.897368335
1.158753659
1.151825659
1.211840957
1.000806226
1.013495565
1.014141909
1.01173462
1.01828562
1.232244532
1.204212142
0.987113572
0.860117346
0.3148019012
0.2690451236
0.5699045072
0.8738409149
0.8861383618
1.16154677
1.163093736
1.231937839
1.008229907
1.007158165
1.015421708
1.026510184
1.241372302
1.208439342
0.9871239848
0.8520156359
0.3044829066
0.268366444
0.559211956
0.8818381007
0.9022208991
1.147414842
1.182703622
1.001796203
1.019061661
1.021381605
1.029407876
1.241373399
1.204026703
0.9754108584
0.8116303999
0.2735321761
0.2845226344
0.5842192198
0.9179999833
1.142017072
1.178216083
1.260765996
1.032230117
1.021367783
1.026465844
1.232180113
1.183575993
0.9255139232
0.5819179447
0.3690347009
0.8757550374
0.9474707913
1.209797919
1.260847028
1.019081836
1.015386697
1.018231558
1.210103304
1.192531392
0.9448812896
0.3206377425
0.3186071703
0.8503847194
0.9475256883
1.178231016
1.001862575
1.007169956
1.011744104
1.014805308
1.19975922
0.9626103348
0.8238309574
0.2734443793
0.3186661111
0.8759410281
1.142280335
1.182745764
1.008233973
1.014160212
1.023751362
1.264770069
1.19825175
0.9263564738
0.575053428
0.3690928728
0.9181188355
1.147415061
1.231943076
1.013517377
1.01867285
1.024237765
1.209064025
1.17463415
0.9031678605
0.2746392307
0.5842155202
0.9022309334
1.163098697
1.000817624
1.010184489
1.0131267
1.006438165
1.171632379
0.9061745679
0.5812294397
0.284521511
0.8818392156
1.161546672
1.21183938
1.00631648
1.014429389
1.012106892
1.22618519
1.173907067
0.8816696229
0.26112671
0.5592070294
0.8861359884
1.151820186
0.9976834317
1.010194511
1.012113984
1.007034714
1.205779571
0.9052043592
0.4908905931
0.2683632281
0.8738354824
1.158746169
1.216256571
1.010683521
1.01556877
1.015227798
1.216810533
0.9482168872
0.6321918901
0.5699003903
0.8973636406
1.169639171
1.013335292
1.017582407
1.020597606
1.247590194
1.188543716
0.8930343734
0.2468242184
0.2690433019
0.9106936468
1.198388662
1.256444419
1.025145399
1.016395707
1.010266578
1.201081505
0.89089687
0.4630796556
0.6430388721
0.9564206715
1.231335653
1.023064551
1.016891495
1.014003664
1.249450101
0.9415915306
0.5313497131
0.5484299835
0.9547515069
1.258082159
1.01772837
1.017581778
1.020149541
1.224854828
0.9368841641
0.6232074937
0.5153433607
0.9360956928
1.242359487
1.010964678
1.017705825
1.019074066
1.234614469
1.136116164
0.6764081217
0.4966894659
0.9219384592
1.227544048
1.003282289
1.016005359
1.01040612
0.9903470477
1.145335456
0.860053877
0.2367436945
0.4883620011
0.9131371378
1.217362491
0.9978681903
1.015388499
1.01176978
0.9880456194
1.193038557
0.8753444479
0.4374711929
0.4862399594
0.9110709695
1.214622544
0.9960385462
1.015996235
1.015316508
0.994630467
1.214114171
0.9080756183
0.4812820663
0.4882717248
0.9134407567
1.217235539
0.9969522099
1.017131362
1.01758757
0.9985215902
1.221458418
0.9163476197
0.4905946167
0.4905365962
0.9160784759
1.220538356
0.9985486567
1.018183755
1.018633392
0.999794265
1.222617372
0.9169675424
0.491206508
0.4912964528
0.9170248599
1.22198821
0.9994865702
1.018852858
1.019242808
1.000470066
1.223392423
0.9174891024
0.4915284291
0.491579091
0.9174308987
1.222649378
0.9999760387
1.019242671
1.019615071
1.00087983
1.223856019
0.9178265423
0.4916816713
0.4916817699
0.9176163815
1.222949724
1.000226563
1.019462776
1.019837231
1.001125083
1.224122874
0.9180285083
0.4917615908
0.4917180563
0.9177037025
1.223089709
1.000357967
1.019585964
1.019963901
1.001262933
1.224267129
0.9181402108
0.4918060499
0.4917326646
0.917748945
1.223167486
1.000436005
1.019657465
1.020030806
1.001329338
1.22433248
0.9181951986
0.4918303933
0.4917420426
0.9177814526
1.223235333
1.000499836
1.019705824
1.02005919
1.001342839
1.224338262
0.9182128484
0.4918415534
0.4917524445
0.9178189346
1.223325307
1.000575481
1.019749592
1.02005996
1.001309219
1.224287599
0.9182009245
0.4918426892
0.4917667182
0.9178722535
1.223456667
1.000679179
1.019800235
1.020038383
1.0012293
1.224178361
0.9181612652
0.4918351483
0.4917856903
0.917944616
1.223632951
1.000815103
1.019862922
1.019997718
1.001107829
1.224015362
0.9180967898
0.4918202647
0.4918077703
0.9180298169
1.223838657
1.000973281
1.019939416
1.01993462
1.00095884
1.223818191
0.9180165179
0.4918007538
0.4918294828
0.918114486
1.224043547
1.001130198
1.020010164
1.019865392
1.000807671
1.223619089
0.9179351282
0.491780718
0.4918473096
0.9181851015
1.22421719
1.001262402
1.020060611
1.019811216
1.000679355
1.223449573
0.9178667765
0.4917640003
0.4918595757
0.9182347433
1.22434302
1.001358834
1.020096768
1.019772672
1.000585941
1.223326724
0.9178186762
0.4917524661
0.4918667616
0.918264505
1.224421495
1.001419882
1.020120003
1.019748804
1.000527269
1.223250387
0.9177899526
0.4917457686
0.4918704393
0.9182800432
1.224464066
1.001453781
1.020133312
1.019736014
1.000495212
1.223209345
0.9177751296
0.491742411
0.4918721513
0.9182873055
1.224484472
1.001470573
1.020140245
1.019730117
1.000479863
1.223190059
0.9177683662
0.4917409078
0.4918729109
0.9182904571
1.224493297
1.001478185
1.020143695
1.019727943
1.000473528
1.223182205
0.917765624
0.4917403034
0.4918732208
0.9182917023
1.224496691
1.001481359
1.020145504
1.019727736
1.000471735
1.223179829
0.9177647791
0.4917401228
0.4918732837
0.9182919421
1.224497346
1.001482259
1.020146599
1.019728845
1.000472669
1.223180524
0.9177650541
0.4917401998
0.4918731119
0.9182912353
1.224495408
1.001481112
1.020147285
1.01973159
1.000476598
1.223184499
0.9177665213
0.4917405645
0.4918725538
0.9182888544
1.224488614
1.001476325
1.020147278
1.019737261
1.000485891
1.223194576
0.9177701347
0.4917414224
0.4918711429
0.9182827619
1.22447133
1.001463855
1.020145635
1.019748525
1.000505782
1.223217267
0.9177782563
0.4917433195
0.4918679617
0.9182691143
1.224433763
1.001436891
1.020140795
1.019769907
1.000545116
1.223263774
0.917795271
0.4917473199
0.4918615944
0.9182424159
1.224363412
1.001387081
1.020131271
1.019807707
1.000615575
1.223348956
0.9178275478
0.4917550671
0.4918506592
0.9181977914
1.224250836
1.001309002
1.02011751
1.019868963
1.000728165
1.223486186
0.9178814328
0.4917683041
0.4918350356
0.9181354096
1.224098936
1.001206951
1.020103817
1.019960363
1.00088787
1.223679109
0.9179591988
0.491787788
0.4918169799
0.9180643833
1.22393002
1.001100052
1.020094012
1.020091199
1.0010908
1.223916567
0.9180560288
0.4918123343
0.4918011081
0.9180023847
1.223784827
1.001026075
1.02012008
1.020257778
1.001326374
1.224177608
0.9181622091
0.4918393707
0.4917932294
0.9179710222
1.223712982
1.001035015
1.020233944
1.020476133
1.001595719
1.224449472
0.9182717605
0.4918674753
0.4918002843
0.9179934873
1.223767621
1.001187773
1.020496621
1.020812284
1.001935471
1.224750134
0.9183932504
0.4918999077
0.4918340596
0.9181019984
1.224020874
1.001582722
1.021030609
1.021390365
1.002442582
1.225149474
0.9185595872
0.4919487333
0.4919210199
0.9183607782
1.22460966
1.002418968
1.022093811
1.022473958
1.003329594
1.225802429
0.9188428137
0.4920416755
0.4921235732
0.9189296989
1.225840775
1.004147426
1.024249562
1.024633283
1.005063879
1.227036699
0.9194068317
0.4922388667
0.4916378358
0.9189425228
1.227335529
1.007964471
1.028755289
1.029130697
1.008853769
1.22848694
0.9193766828
0.4917252915
0.4873629688
0.9143022391
1.22546963
1.016862716
1.037973052
1.038324161
1.017694142
1.226528964
0.9146268574
0.4873716478
0.5463701134
0.8916478224
1.166644263
1.039482254
1.054389977
1.054641487
1.040181767
1.167505907
0.8917700732
0.5461315907
1.06839287
1.173740256
1.075910796
1.068879115
1.068735328
1.07598679
1.173762126
1.068881874
0.0573407096
0.1149334736
0.9636172798
0.9515631546
0.9293873982
0.9285758901
0.9495248057
0.9643216733
0.1546925
0.05787461538
0.6498346301
0.6002594235
0.6125538738
0.6143788617
0.6144337044
0.6144203879
0.6143989474
0.6143811324
0.6143687886
0.614360946
0.6143561781
0.61435334
0.6143516536
0.6143506419
0.614349998
0.6143495348
0.6143490912
0.6143485069
0.6143475506
0.6143458426
0.6143427037
0.6143369867
0.6143266703
0.6143081996
0.6142748377
0.6142123302
0.6140864161
0.6138030786
0.613066555
0.610270322
0.593777517
0.5744071195
0.498017183
0.2362332401
1.013744177
1.120321503
1.091685552
1.110692463
1.11504836
1.114604478
1.113880452
1.113488632
1.11326849
1.11314137
1.113066497
1.113021794
1.112994905
1.112978666
1.11296884
1.11296286
1.112959138
1.112956658
1.112954696
1.112952625
1.11294971
1.112944833
1.112936072
1.112920008
1.112890379
1.112835888
1.112735659
1.112549148
1.112191417
1.111470124
1.109926917
1.106518375
1.08990743
1.047023308
1.027716518
0.8620424325
0.681843389
0.6543550771
0.603505836
0.5455633397
0.278600419
0.9454272029
1.047393003
1.02525063
1.017684783
1.011691186
1.00848627
1.006906915
1.006072224
1.005609422
1.005344649
1.00518972
1.005097554
1.005042116
1.005008553
1.004988171
1.004975748
1.004968096
1.00496319
1.004959668
1.004956489
1.004952573
1.004946471
1.004935837
1.004916517
1.00488106
1.004816135
1.004698109
1.004484821
1.004100067
1.003402002
1.002113931
0.999639345
0.9939818844
0.9986742712
1.254005305
1.239094013
1.243724042
1.190434883
1.112234039
1.062818114
0.8521670474
0.596666425
0.3444370696
0.900521806
1.078491765
1.064715958
1.046565848
1.037558801
1.032921305
1.030499821
1.029178307
1.028432477
1.028000856
1.027746203
1.027593785
1.027501642
1.027445638
1.027411504
1.027390681
1.027377904
1.027369889
1.027364476
1.027360137
1.027355461
1.027348822
1.027337767
1.027318223
1.027283144
1.027220369
1.027109273
1.026915168
1.02658046
1.026009309
1.025035489
1.023329457
1.019810853
1.019682042
1.039301261
1.060860519
1.066324873
1.057544158
1.040403076
1.265802783
1.204834033
1.140082054
1.124141941
0.6428816269
0.5786880913
0.276993864
0.910509008
1.067817764
1.058274554
1.041029857
1.030191002
1.024384426
1.021259692
1.019532586
1.018552177
1.017982457
1.017644989
1.017442217
1.01731921
1.017244214
1.017198404
1.017170437
1.017153343
1.0171428
1.017136051
1.017131227
1.017126864
1.017121496
1.017113192
1.017098953
1.01707383
1.017029839
1.016954623
1.016830392
1.016633382
1.016333305
1.015886496
1.015211259
1.014282123
1.016059961
1.028702417
1.057227005
1.06961399
1.064420836
1.05352976
1.061426739
1.053826789
1.043704656
1.239683676
1.136199166
1.093112063
0.7909922044
0.3845571813
0.9051918786
1.060704124
1.058990018
1.045656898
1.0347122
1.028460181
1.024982304
1.023034651
1.021923559
1.021276289
1.0208921
1.02066078
1.020520196
1.02043433
1.020381818
1.020349745
1.020330184
1.020318219
1.020310762
1.020305766
1.020301763
1.020297418
1.020291161
1.020280607
1.020261926
1.02022891
1.020171949
1.020077633
1.019929952
1.019715522
1.019435752
1.019134993
1.019022267
1.020403032
1.026229627
1.03874526
1.04586804
1.045319009
1.045318661
1.061669491
1.062166669
1.052105631
1.05177394
1.041796672
1.254372013
1.144831977
1.142727411
0.6107586038
0.322835192
0.9044843177
1.060271167
1.058906113
1.045760012
1.03490407
1.028695389
1.025240465
1.023304956
1.022199979
1.021555592
1.021172677
1.020941895
1.020801529
1.020715754
1.020663283
1.020631248
1.020611737
1.02059985
1.020592525
1.020587755
1.020584131
1.020580415
1.020575154
1.020566081
1.020549342
1.0205181
1.020460679
1.020358504
1.020185963
1.019919043
1.019573252
1.019323308
1.019767814
1.02190697
1.026607981
1.033271762
1.037935804
1.039518852
1.039903913
1.043478745
1.042692351
1.040316935
1.049535583
1.04870841
1.053662022
1.045431802
1.212457479
1.12060051
0.8416187831
0.4013586303
0.9094134234
1.067213583
1.058261063
1.041349479
1.030688747
1.024982194
1.021914206
1.020217905
1.01925311
1.018690751
1.018356534
1.018155132
1.018032693
1.017957938
1.017912253
1.017884384
1.017867427
1.017857099
1.017850715
1.017846511
1.017843206
1.01783961
1.017834169
1.017824316
1.017805217
1.017767531
1.017693543
1.017551276
1.017288392
1.016836537
1.016168949
1.015558742
1.016333309
1.020245369
1.027884571
1.037568791
1.045728667
1.049830082
1.04743791
1.039188364
1.034924117
1.032532498
1.035852773
1.039738729
1.055849909
1.067945045
1.072142958
1.295086825
1.16408886
1.140229333
0.5969216174
0.3058305757
0.9003158242
1.078276028
1.064820972
1.046942388
1.038101125
1.033565138
1.031202826
1.029913426
1.029183735
1.028759676
1.028508376
1.028357389
1.02826587
1.02821014
1.028176168
1.028155488
1.028142916
1.028135225
1.028130395
1.028127021
1.028124023
1.028120252
1.028114001
1.028102248
1.028078965
1.028031719
1.027934945
1.027737649
1.02734389
1.026591554
1.02527289
1.023445285
1.023424947
1.028688551
1.040416122
1.055721402
1.069052063
1.076337504
1.069715998
1.044388893
1.034873641
1.029573539
1.031076894
1.03461434
1.047965705
1.071045522
1.073259448
1.072212107
1.046576464
1.192542446
1.079173307
0.8184102679
0.3484358483
0.9448747022
1.046730539
1.024967678
1.017784977
1.011988347
1.008883343
1.007352953
1.006541146
1.006088481
1.005828021
1.005674919
1.005583546
1.005528474
1.00549511
1.005474853
1.005462565
1.005455098
1.005450496
1.00544752
1.005445251
1.005442935
1.00543959
1.005433709
1.005422445
1.005400145
1.005354882
1.005261208
1.00506498
1.004654708
1.003813785
1.002173742
0.99945603
0.9987443961
1.005203081
1.020496178
1.041307367
1.059848818
1.069084033
1.070145109
1.049381055
1.041602032
1.028975051
1.029740002
1.031311776
1.038539011
1.047133769
1.050163679
1.060099835
1.060713632
1.051962911
1.226861196
1.12544172
0.8468757938
0.3484716824
1.008438193
1.118190805
1.0913154
1.110745274
1.115233265
1.114842668
1.114140391
1.113757014
1.113539961
1.113413992
1.113339609
1.113295164
1.11326842
1.113252289
1.113242546
1.113236667
1.113233099
1.113230895
1.113229405
1.113228158
1.113226675
1.113224314
1.113220061
1.113212043
1.113196583
1.113165393
1.113098088
1.112943598
1.112579167
1.111725713
1.109760989
1.105252776
1.102429905
1.109772855
1.129523258
1.165253071
1.214426158
1.227667818
1.277601525
1.034999388
1.033752491
1.029757963
1.036214611
1.033074725
1.037697619
1.037254941
1.038345593
1.047797936
1.066208363
1.071967467
1.063118855
1.240870633
1.12557205
0.8185216986
0.3057271696
0.06461419723
0.08430957624
0.6497970343
0.6002747053
0.6125812101
0.6144104729
0.6144672448
0.6144548796
0.614433908
0.6144163179
0.6144040798
0.6143962869
0.6143915388
0.6143887178
0.6143870546
0.6143860717
0.6143854813
0.6143851126
0.6143848347
0.6143845528
0.6143841293
0.6143833739
0.6143819257
0.6143791617
0.6143738424
0.6143631842
0.6143399822
0.6142849612
0.614148729
0.6138107743
0.6129531934
0.6104262153
0.6083809992
0.611945603
0.623422991
0.6453508487
0.6797956488
0.8861483101
1.093977407
1.115595877
1.211707444
1.016918065
1.034568356
1.041703302
1.050533743
1.03924332
1.03560238
1.041712086
1.054057302
1.073466449
1.076575726
1.062943188
1.226660586
1.07821471
0.5962621409
0.2995797001
0.5626735544
0.6353121712
1.105397479
1.087308323
1.217465721
1.03943151
1.057505795
1.048535605
1.04235474
1.047244016
1.049004259
1.057407651
1.073387436
1.071522753
1.051461918
1.19139792
1.139838452
0.4013190392
0.349848195
0.5959891444
1.144731217
1.157895642
1.285456457
1.062593575
1.062443475
1.070463547
1.057081536
1.04891549
1.054004956
1.066208336
1.060409953
1.046193757
1.163840444
0.8414447837
0.3228384412
0.3994908079
0.8519518925
1.149373786
1.243621121
1.06152042
1.073380774
1.070652919
1.047297293
1.041603584
1.047830833
1.060035083
1.072128537
1.295006361
1.120487974
0.6107250039
0.3619773844
0.8483272348
1.127156087
1.235701835
1.061593835
1.062531917
1.042421671
1.035619112
1.038409054
1.050199975
1.073270735
1.072117837
1.21239229
1.142666479
0.384552571
0.3548420183
0.840873367