/*--------------------------------*- C++ -*----------------------------------*\
| =========                 |                                                 |
| \\      /  F ield         | OpenFOAM: The Open Source CFD Toolbox           |
|  \\    /   O peration     | Version:  4.1                                   |
|   \\  /    A nd           | Web:      www.OpenFOAM.org                      |
|    \\/     M anipulation  |                                                 |
\*---------------------------------------------------------------------------*/
FoamFile
{
    version     2.0;
    format      ascii;
    class       volScalarField;
    location    "3";
    object      p;
}
// * * * * * * * * * * * * * * * * * * * * * * * * * * * * * * * * * * * * * //

dimensions      [0 2 -2 0 0 0 0];

internalField   nonuniform List<scalar> 
24850
(
-0.2118028811
-0.2370327145
-0.230142294
-0.22523673
-0.2249942386
-0.2258676206
-0.2255572394
-0.2252221722
-0.2251686623
-0.2251045629
-0.2250016179
-0.2248546585
-0.2246917196
-0.2244892434
-0.2242277261
-0.2238961913
-0.2234756117
-0.2229406122
-0.2222607657
-0.2213976298
-0.2203021678
-0.2189121944
-0.2171486502
-0.2149106954
-0.2120681265
-0.2084534413
-0.2038329224
-0.1979149598
-0.1900352548
-0.1797983386
-0.1636201707
-0.1557634191
-0.1470210499
-0.1426324308
-0.2168848763
-0.2206345573
-0.2250187415
-0.2287402848
-0.2256722524
-0.2242002077
-0.2250541886
-0.2257659103
-0.2254993526
-0.2253126753
-0.2252950592
-0.2252383139
-0.2251722012
-0.225098431
-0.2250169226
-0.2249072093
-0.2247564921
-0.2245606351
-0.2243082457
-0.2239826041
-0.2235635399
-0.2230251376
-0.2223337046
-0.221445822
-0.2203054938
-0.2188403513
-0.2169558308
-0.2145284059
-0.2113852807
-0.207298435
-0.2018641457
-0.1947286874
-0.1852244688
-0.1777996742
-0.1690881284
-0.1597082516
-0.1458848723
-0.1491381906
-0.1390386416
-0.1362262652
-0.2203145432
-0.2221229908
-0.2246202574
-0.2251964799
-0.2250679319
-0.2250852535
-0.2255514987
-0.2257239704
-0.2255874137
-0.2254681069
-0.2254686531
-0.2254352614
-0.2253828994
-0.2253503368
-0.2253255307
-0.2252845795
-0.225225804
-0.2251480968
-0.2250442717
-0.2249051981
-0.2247202225
-0.2244752094
-0.2241513272
-0.2237239273
-0.2231607822
-0.222419791
-0.2214457542
-0.2201666909
-0.218483372
-0.216261176
-0.2133246689
-0.2094896752
-0.2043462943
-0.1989709492
-0.1932942127
-0.1866825453
-0.1811798732
-0.1756452813
-0.1654338876
-0.1546476413
-0.1387746773
-0.1363561574
-0.136117063
-0.2202669704
-0.2222423222
-0.2246832831
-0.2252238086
-0.2251176941
-0.2251447984
-0.2256128184
-0.2257999891
-0.2256828814
-0.225577149
-0.2255965696
-0.2255948623
-0.2255941011
-0.2256208196
-0.2256654357
-0.2257109597
-0.2257605415
-0.2258191861
-0.2258865967
-0.2259624652
-0.2260472911
-0.2261408836
-0.2262419607
-0.2263479772
-0.2264546626
-0.2265556013
-0.2266423538
-0.2267056206
-0.2267405489
-0.2267571305
-0.2268190795
-0.2270225422
-0.2275260147
-0.2269648457
-0.2239286613
-0.2172829237
-0.2128016043
-0.2073371302
-0.1972950475
-0.1831399798
-0.1749230759
-0.161863141
-0.1529906843
-0.1318305101
-0.1415748451
-0.2192732437
-0.2207324591
-0.225131606
-0.2288474927
-0.2258030058
-0.2243488266
-0.2252362976
-0.2260083348
-0.2257568635
-0.2256229569
-0.2256826084
-0.225716934
-0.2257683221
-0.2258424677
-0.2259548637
-0.2260844115
-0.2262335493
-0.2264149051
-0.2266361933
-0.2269054715
-0.2272336768
-0.2276338649
-0.2281214908
-0.2287153093
-0.2294384184
-0.2303198854
-0.2313983047
-0.2327280481
-0.2343995003
-0.2365672704
-0.2395805663
-0.2439203097
-0.2504251845
-0.2543896022
-0.253304059
-0.2482589689
-0.2437833021
-0.2398211626
-0.2307310055
-0.2160002053
-0.2049578973
-0.1910530476
-0.1790915212
-0.1682281968
-0.1596621396
-0.1407857671
-0.2119332866
-0.2372060603
-0.2303592315
-0.2254873056
-0.2253026083
-0.2263636249
-0.225976047
-0.2257480247
-0.2258322466
-0.2259146604
-0.2260258589
-0.2261564474
-0.2263230733
-0.2265299589
-0.2267879822
-0.2271096711
-0.2275089986
-0.2280037814
-0.2286169811
-0.2293772154
-0.2303200222
-0.2314899146
-0.2329432496
-0.2347524808
-0.237013828
-0.2398587443
-0.2434868734
-0.2482085091
-0.2547149629
-0.2642713711
-0.2803252963
-0.2928208601
-0.2956201649
-0.2903482079
-0.2909102164
-0.2945018898
-0.2687029252
-0.2542941539
-0.2404127571
-0.2269442455
-0.2066152669
-0.1954942775
-0.1812684182
-0.165808906
-0.1568817904
-0.1655133763
-0.2971030878
-0.3107981617
-0.277869514
-0.2625564564
-0.2405567152
-0.2269061702
-0.2069000369
-0.1895378292
-0.184860187
-0.1730695438
-0.1644013756
-0.2996140591
-0.3182953255
-0.2762446905
-0.2580242788
-0.2355073081
-0.2156713075
-0.2002990178
-0.1882857504
-0.1752312278
-0.1741413402
-0.3001704451
-0.3080941229
-0.2650180524
-0.2401366778
-0.2203065019
-0.1985177896
-0.1810341081
-0.1694691026
-0.1665557834
-0.2818863824
-0.2633541316
-0.239831144
-0.2107291864
-0.1853418933
-0.1605713547
-0.1471289673
-0.1312421351
-0.282653293
-0.2671783083
-0.219861008
-0.1879666429
-0.1532689649
-0.1189490903
-0.09727227267
-0.0635741359
-0.2233089168
-0.1977853738
-0.1520886182
-0.1038460578
-0.06147923129
-0.02138126473
0.01785241245
-0.1960726773
-0.154331615
-0.1055134001
-0.05203395622
-0.01056993378
0.03108108869
-0.2208060007
-0.1638541947
-0.1106589441
-0.05397884154
0.003387298
0.05699324272
0.1090866866
-0.1612201523
-0.1226006586
-0.06222284784
0.0012270392
0.05790644853
0.1129449371
0.1494633119
-0.120641653
-0.07456095582
-0.02059321065
0.03648715954
0.0819725903
0.1222090998
-0.1798315604
-0.1059513738
-0.04671556474
0.01842783923
0.07844234596
0.1344977264
0.1811592212
-0.1039525297
-0.05765179401
-0.0001601075609
0.05348063435
0.1014861944
0.1414553087
-0.1760698335
-0.08769568589
-0.02525899467
0.03164344844
0.08905904357
0.130911537
-0.08641121803
-0.04047940591
0.01571540619
0.07330503943
0.1338512847
0.1746001506
-0.1495823053
-0.05948425234
0.00157488937
0.05304910985
0.09851063337
0.1395951973
-0.07128207773
-0.02055669643
0.0375357946
0.08813711227
0.1280900098
-0.12102473
-0.03858648497
0.02087943102
0.0703335965
0.1109776835
-0.1193174581
-0.04080153239
0.01145746425
0.06152175068
0.1208017015
0.1559261993
-0.1141206602
-0.04281590866
0.004749190673
0.04763523279
0.09019038276
0.124015795
-0.1137944938
-0.04773671519
-0.004207840817
0.0349894881
0.072928634
0.1080052041
-0.1035496658
-0.04612975815
-0.008194266492
0.02783339941
0.06032190338
0.09288127831
-0.0810941208
-0.03646118502
-0.007154526053
0.02286682215
0.0485960277
0.07793259253
-0.05393246719
-0.02481834644
-0.004643198489
0.01729510841
0.03558459091
0.05599418561
-0.03928704039
-0.01906393753
-0.003968413371
0.01200731642
0.02605309698
0.04147503861
-0.03219193132
-0.01674904741
-0.004391144734
0.007945658014
0.01949363869
0.03182879473
-0.02688647314
-0.01477300672
-0.004700506155
0.005101719575
0.01453290015
0.02450633307
-0.02218228434
-0.01275029173
-0.004731067372
0.003047020519
0.01060509657
0.01863199794
-0.01838211222
-0.01103716656
-0.004680461994
0.001470414135
0.00750275005
0.01391983857
-0.01546088818
-0.009686699544
-0.004625137176
0.0002529532277
0.005079168685
0.01021437613
-0.01316264848
-0.008595868276
-0.004557498184
-0.0006781327432
0.003192709184
0.00731078789
-0.01130901225
-0.007693353336
-0.004471612179
-0.001383108563
0.00171678312
0.00501616536
-0.009814775059
-0.006949821028
-0.004377221262
-0.001918863233
0.0005557071539
0.003195380892
-0.008618990672
-0.006345374435
-0.0042846232
-0.002331343516
-0.000359559079
0.001752256941
-0.007664929134
-0.005860970683
-0.004220206033
-0.002659542677
-0.001084614597
0.0006076391275
-0.006903870029
-0.005472803732
-0.004173565697
-0.00292814696
-0.001662878015
-0.0003051146728
-0.00629493
-0.005158566689
-0.004128135944
-0.003135564716
-0.00212093353
-0.001033888385
-0.005807026638
-0.004904110036
-0.00408374064
-0.003293075644
-0.002482759407
-0.001615092127
-0.005417754968
-0.004700547203
-0.004046143995
-0.003416583175
-0.002770660411
-0.002079200577
-0.005109192087
-0.00453964115
-0.004017083048
-0.003516372098
-0.003001613665
-0.002450733746
-0.004865870086
-0.004413505885
-0.003996301264
-0.003598115232
-0.003187768867
-0.002748793782
-0.004674889137
-0.004315454965
-0.003982449508
-0.003665707339
-0.003338482386
-0.002988554585
-0.004525839085
-0.004240128029
-0.003974630035
-0.003722434842
-0.003461343718
-0.00318231327
-0.004410667435
-0.004183602506
-0.003972111156
-0.003770883233
-0.003562310101
-0.003339584837
-0.004322597103
-0.004141895395
-0.003974004834
-0.003813301571
-0.003646237975
-0.003468255124
-0.004256782907
-0.004112991733
-0.003979694507
-0.003851547037
-0.003716632902
-0.00357394262
-0.004208770263
-0.004093643501
-0.003988458365
-0.003885708428
-0.003776689378
-0.003661829118
-0.004175293063
-0.004082137113
-0.00399914507
-0.003916824943
-0.003828671409
-0.003736556189
-0.004152820161
-0.004077601476
-0.004011809441
-0.003945390454
-0.003874861099
-0.003801322869
-0.004141854132
-0.004078935964
-0.004022721074
-0.00397009869
-0.003917279796
-0.003861257314
-0.004139189674
-0.004086748814
-0.004034751113
-0.003990616167
-0.003959548098
-0.003919053983
-0.004150491005
-0.004107563918
-0.004060155521
-0.00402722157
-0.004010023156
-0.003981997242
-0.004180069701
-0.00414423723
-0.004107100424
-0.004083065414
-0.004070585543
-0.004054795091
-0.004239122724
-0.004199195083
-0.004163722265
-0.004145656763
-0.004143775885
-0.004146640802
-0.004346454083
-0.004282072964
-0.004225745442
-0.004212037872
-0.004239440557
-0.004274566276
-0.004610054661
-0.004420542494
-0.004316020352
-0.004303293814
-0.004389803963
-0.004552176786
-0.005069365831
-0.004558926269
-0.004378827815
-0.004356896861
-0.004536252656
-0.005024170991
-0.006585646486
-0.004802150516
-0.004516594719
-0.004490411853
-0.004785737317
-0.006536638765
-0.00724839684
-0.00397660984
-0.004568572502
-0.004546911147
-0.003933926612
-0.007222017999
-0.014018247
-0.001341306638
-0.003908206855
-0.003871633063
-0.001300165535
-0.01399852734
0.002437528844
-0.001780793518
-0.001727832735
0.002603286173
0.00975568038
0.004604160318
0.004356028158
0.006059900394
-0.2168847483
-0.2322924645
-0.2294995369
-0.2243194739
-0.2250130017
-0.2256112924
-0.2253556417
-0.2251388003
-0.2250059745
-0.2248053509
-0.224583358
-0.2243499841
-0.2240654388
-0.2237032049
-0.2232453167
-0.2226690466
-0.2219426897
-0.221027128
-0.2198744429
-0.2184246514
-0.2166026502
-0.2143146631
-0.2114433709
-0.2078414395
-0.2033225523
-0.1976452325
-0.1904976802
-0.1813692501
-0.1697173561
-0.1532268943
-0.1336173434
-0.1199719669
-0.1055455272
-0.2188671123
-0.2216832528
-0.2234797194
-0.2285910322
-0.2270019235
-0.2251295596
-0.2254400331
-0.2254487698
-0.2253297084
-0.2251513391
-0.2250141161
-0.2248946681
-0.2247252461
-0.2245384507
-0.2243132283
-0.2240193856
-0.2236424592
-0.2231657753
-0.2225629456
-0.2218005816
-0.2208377065
-0.2196227127
-0.2180905323
-0.2161593725
-0.2137262438
-0.2106609068
-0.2067974174
-0.2019199837
-0.1957451241
-0.187852515
-0.1777393458
-0.1643778449
-0.1485794006
-0.1350686764
-0.1173666939
-0.1018744331
-0.1127297305
-0.09861416948
-0.08873071336
-0.07861178677
-0.2184624601
-0.2191554891
-0.2246256837
-0.2283083667
-0.2261081634
-0.2237838656
-0.2250573902
-0.2255135118
-0.2254911478
-0.2252754626
-0.2251540351
-0.2250610962
-0.2249278346
-0.2247558539
-0.2245572862
-0.2243149661
-0.2240083915
-0.2236216021
-0.2231322745
-0.2225119633
-0.2217263199
-0.2207321529
-0.2194747745
-0.2178852674
-0.2158766414
-0.213338768
-0.2101310513
-0.2060727101
-0.2009240654
-0.1943721975
-0.1860090874
-0.1756663033
-0.163098212
-0.153040966
-0.1429397538
-0.1332502495
-0.1260315653
-0.1184207221
-0.109723119
-0.09907242212
-0.09339265546
-0.09245758339
-0.07721480411
-0.2178313054
-0.2200302308
-0.2272393726
-0.2280207826
-0.2246237185
-0.2240779548
-0.225444713
-0.2257849562
-0.2252104815
-0.2250839746
-0.2252102909
-0.2251918847
-0.2251059713
-0.2250109148
-0.2249089232
-0.2247730601
-0.2245890622
-0.2243516527
-0.2240476231
-0.2236580124
-0.2231598571
-0.2225238998
-0.221712557
-0.2206779596
-0.2193591593
-0.2176784633
-0.2155365472
-0.2128070759
-0.2093303305
-0.2049219028
-0.1993852375
-0.1926820589
-0.1848780654
-0.1772050815
-0.1685904791
-0.1572711476
-0.1475533443
-0.1423153883
-0.1337136463
-0.1226853211
-0.1143757547
-0.1088558891
-0.0974295479
-0.0937306448
-0.08712371685
-0.2181812402
-0.2199490284
-0.2270695992
-0.2287547263
-0.2239518446
-0.2238882658
-0.2256023102
-0.2258217306
-0.2254084023
-0.2253140381
-0.2254283885
-0.225419645
-0.2253630004
-0.2253344782
-0.225305206
-0.2252578148
-0.2251922649
-0.2251066996
-0.2249933263
-0.2248426602
-0.2246437092
-0.2243819861
-0.2240383313
-0.2235878144
-0.2229981353
-0.2222274432
-0.2212223513
-0.2199130561
-0.2182145619
-0.2160359447
-0.2132653361
-0.2097703834
-0.2054481361
-0.2004614113
-0.194489851
-0.1874995153
-0.1800367317
-0.1716417581
-0.1612442687
-0.1493536479
-0.1391347589
-0.132616418
-0.1234722736
-0.1107530792
-0.1020077005
-0.09382031632
-0.09777599572
-0.2182146147
-0.219996731
-0.2271208823
-0.2288234963
-0.2240056511
-0.2239399566
-0.2256595452
-0.2259042484
-0.2255034918
-0.2254341256
-0.2255770782
-0.2256121725
-0.2256092887
-0.225641375
-0.2256921382
-0.2257434377
-0.2258015867
-0.2258717356
-0.2259537303
-0.2260483009
-0.2261572624
-0.226282058
-0.2264235666
-0.226582091
-0.2267571033
-0.226947003
-0.2271492896
-0.22736076
-0.2275792207
-0.2277999784
-0.2279981219
-0.2280705486
-0.2277696532
-0.2265523352
-0.2235865171
-0.2185103128
-0.2125921383
-0.2053662659
-0.1953918845
-0.1838213338
-0.1727510467
-0.1605001572
-0.1460882105
-0.1343064367
-0.1284229849
-0.1212577063
-0.1176485768
-0.1091379122
-0.2178809215
-0.2200612835
-0.2273010362
-0.2280490493
-0.2247394394
-0.224231426
-0.2256295429
-0.2260129223
-0.2255222407
-0.2254620546
-0.2256753304
-0.2257732428
-0.2258314249
-0.2259262421
-0.2260667755
-0.2262259191
-0.2264121431
-0.2266403118
-0.2269204931
-0.2272643034
-0.2276869756
-0.2282069607
-0.2288466632
-0.2296337525
-0.2306027357
-0.2317972428
-0.233273976
-0.2351081018
-0.2374027473
-0.2402874576
-0.2439039592
-0.24822002
-0.2527690225
-0.255842783
-0.255870441
-0.2528319948
-0.2480042857
-0.240820178
-0.2294968564
-0.2166694876
-0.2042772319
-0.1908129747
-0.1775064198
-0.1662541475
-0.1530586299
-0.1412839051
-0.1329331496
-0.1319712968
-0.1291510551
-0.1481491535
-0.2186599401
-0.2193384171
-0.2248998468
-0.2286013717
-0.2263566468
-0.2240919085
-0.2254025674
-0.2258670789
-0.2259573662
-0.2258981396
-0.2259343696
-0.2260190931
-0.2261275481
-0.2262856262
-0.2264762308
-0.2267162718
-0.2270212364
-0.2274034157
-0.227879451
-0.2284717395
-0.2292089946
-0.230127279
-0.231271926
-0.2327003855
-0.234486212
-0.2367249145
-0.2395439358
-0.243117665
-0.2477007899
-0.2536600421
-0.2615662742
-0.2718771586
-0.2846002219
-0.2951510841
-0.2998148606
-0.2992153586
-0.2967381741
-0.2917564065
-0.2747816588
-0.2546132202
-0.2407413187
-0.2256075857
-0.2091479216
-0.1942911469
-0.179901902
-0.1654176266
-0.1572559783
-0.1558273619
-0.1553756743
-0.1621216076
-0.1726044802
-0.2188124613
-0.2217542437
-0.2236195739
-0.2288185156
-0.2272776831
-0.2255087034
-0.2258567633
-0.225928117
-0.2259471446
-0.2258865113
-0.2259591805
-0.2260889521
-0.2262486988
-0.2264505227
-0.2267022369
-0.2270138166
-0.2274010694
-0.2278839817
-0.2284865376
-0.2292387963
-0.2301789288
-0.2313551731
-0.2328287217
-0.2346778964
-0.2370041386
-0.2399409177
-0.2436691752
-0.2484409996
-0.2546370759
-0.2628306249
-0.274047582
-0.2895074167
-0.3110360306
-0.329530782
-0.3375225765
-0.3362675747
-0.3393411243
-0.3338853049
-0.3164026621
-0.3026340508
-0.2845906006
-0.2630495433
-0.2429577513
-0.2243057281
-0.2072001791
-0.1926283891
-0.182733941
-0.1736576472
-0.1714436081
-0.1789227101
-0.1946222909
-0.21913922
-0.2171417129
-0.221559726
-0.2170188992
-0.2326009913
-0.2298578124
-0.2248398203
-0.2255285103
-0.2262121794
-0.2260869206
-0.2260341907
-0.2261526084
-0.2262606761
-0.2264350184
-0.22667681
-0.2269774731
-0.2273542537
-0.2278274955
-0.2284206571
-0.2291633719
-0.230093633
-0.231259911
-0.2327238473
-0.2345641101
-0.236881917
-0.2398090041
-0.2435193667
-0.248249386
-0.254328106
-0.2622538952
-0.2728008257
-0.2875828871
-0.3095731646
-0.3463444183
-0.3774982839
-0.3887506026
-0.3932863596
-0.3939119379
-0.4039295516
-0.3784856214
-0.3489427397
-0.3265205537
-0.3111600825
-0.2845380176
-0.2567849181
-0.2353097083
-0.2164220527
-0.2007064359
-0.189454628
-0.1838512504
-0.1869332474
-0.1959992622
-0.2219370352
-0.2651684388
-0.3996466619
-0.4106853227
-0.3947996102
-0.3590415314
-0.3238898692
-0.3017458524
-0.2701914631
-0.2397504514
-0.2190020396
-0.2013285316
-0.1895221681
-0.1845289255
-0.1846945286
-0.1939004171
-0.2249296995
-0.2445093521
-0.4185999343
-0.4078577347
-0.3827719051
-0.3386064605
-0.3038347722
-0.2694913126
-0.2351640837
-0.2085514537
-0.1869832013
-0.1700756748
-0.1590324063
-0.1503752505
-0.1492191946
-0.1528825078
-0.1394418667
-0.4071580181
-0.3905120982
-0.3455442476
-0.3035987984
-0.2651590738
-0.2248013858
-0.1854121756
-0.154552561
-0.127990053
-0.1052771774
-0.07988762348
-0.05439096349
-0.02933606864
-0.3717095911
-0.3454838809
-0.2899851691
-0.246017581
-0.1949470027
-0.1459113506
-0.1058184762
-0.06769222237
-0.02837220223
0.01706370488
0.04902934766
0.1065054562
-0.36078624
-0.3185675823
-0.2644305381
-0.2019037703
-0.1460757502
-0.09956368411
-0.05024324981
-0.004048032517
0.04958686829
0.09676622074
0.1437439115
0.1931945297
-0.343341527
-0.2929448203
-0.2338267567
-0.1669614392
-0.1015102724
-0.04672428788
0.006905361695
0.06124978764
0.1125690659
0.1557140204
0.1897530242
-0.3239185188
-0.2658199798
-0.1949986072
-0.125413592
-0.05699525895
0.0009540681284
0.05446155185
0.1127724867
0.1605124891
0.1981914009
0.2481772884
-0.2698833367
-0.2180518059
-0.1461745085
-0.07384692094
-0.01546288256
0.03948475546
0.09110548438
0.1477652405
0.1939358368
0.226964999
-0.330526213
-0.2453972039
-0.1864134422
-0.1119598796
-0.0385838541
0.0206271993
0.07633299487
0.1345954171
0.1839587869
0.219924148
0.263706238
-0.2724195448
-0.2111663571
-0.1338069013
-0.0596236893
-5.486910936e-06
0.05650323979
0.1072971977
0.1626371399
0.2047655684
0.2437124384
-0.3400416805
-0.2356275663
-0.1744312286
-0.09787065863
-0.02344346766
0.03527032356
0.08864682932
0.1459083747
0.1880505487
0.2153744316
-0.2601757443
-0.1916553596
-0.1174685345
-0.04432536146
0.01541735915
0.07167950821
0.1304207017
0.1774064711
0.2135754904
0.2519741411
-0.3257819236
-0.2057303841
-0.1512615844
-0.07522816331
-0.002830111264
0.05318198391
0.1040225532
0.1574976579
0.1972899419
0.2344942555
-0.2265841285
-0.1670630781
-0.09371167025
-0.01994579873
0.03628570896
0.08726985185
0.1389307596
0.1794427364
0.2100030123
-0.2845861553
-0.179131419
-0.1089196503
-0.03341943864
0.02201939741
0.07267773019
0.1247579336
0.1647483111
0.1976645819
-0.2826241781
-0.1773610268
-0.1139303363
-0.04024365091
0.0116177175
0.06027070598
0.1126959508
0.1487256633
0.1733077718
-0.2566963794
-0.1674159201
-0.113193089
-0.04506461468
0.003529322199
0.04759224603
0.08942234172
0.1344099095
0.1766682064
0.2133581867
-0.2366865672
-0.1606879456
-0.109724053
-0.04853649467
-0.003274508906
0.03698128375
0.07420239638
0.1143464114
0.1463705456
0.1747796055
-0.2102999832
-0.1446380378
-0.09977442635
-0.04816620719
-0.007637123466
0.02845393843
0.06143086128
0.09448654154
0.1196146131
0.1418446916
-0.1607550497
-0.1142748478
-0.08277967954
-0.04243295073
-0.008514972316
0.02167448104
0.05038606194
0.07775436302
0.09938410004
0.1239735998
-0.1058299543
-0.08095682536
-0.06249738788
-0.0336935077
-0.007387968792
0.01635956764
0.03988134671
0.0612554815
0.07648811392
0.09215154824
-0.07641030126
-0.05997039082
-0.04734055741
-0.02683548215
-0.006452694265
0.0117885683
0.03069432917
0.04716264849
0.05795275448
0.06816090014
-0.06171780684
-0.04849498999
-0.03825375667
-0.02248068277
-0.006183281797
0.008197003006
0.0233485805
0.03625147596
0.04498225135
0.05321635119
-0.050291194
-0.03994379861
-0.03162576603
-0.0191601252
-0.00607858895
0.00556996605
0.01766426028
0.02798966895
0.03519060922
0.04203074779
-0.04028538748
-0.03251025941
-0.02594337437
-0.01624459547
-0.005882522542
0.003550789313
0.01318425949
0.02152114248
0.02724650659
0.03282696173
-0.03245022682
-0.02650833981
-0.02131843241
-0.01378631323
-0.005617851197
0.001940005556
0.009608157096
0.01629525927
0.02083923174
0.02533279078
-0.02652300633
-0.02188643367
-0.01775135705
-0.01182774067
-0.005360901823
0.0006705387723
0.006779854042
0.01213038393
0.01580001704
0.01942489839
-0.02188393116
-0.0182558705
-0.01496621154
-0.01027378016
-0.005136047065
-0.0003176288382
0.004563705071
0.008855430426
0.0118218173
0.01474862478
-0.0181836172
-0.0153439854
-0.01273573602
-0.009017664126
-0.004935307665
-0.001089763289
0.002820269491
0.006262615437
0.00864517773
0.01100124414
-0.01524020708
-0.01301164937
-0.01094343054
-0.007997697286
-0.004754585162
-0.001689755782
0.001441407973
0.004197969443
0.00610699567
0.00800145391
-0.01290786281
-0.01115417947
-0.009511742403
-0.007174884131
-0.004595167436
-0.002152567373
0.0003500462689
0.002555816954
0.00408495203
0.005607494569
-0.01105798306
-0.009675582261
-0.008370588792
-0.006514571553
-0.004458266507
-0.002514719633
-0.0005153608212
0.001249930224
0.002474201354
0.003696542761
-0.009588403405
-0.008497366615
-0.00746076122
-0.005986086063
-0.004349055709
-0.002801241007
-0.001203597071
0.0002087384097
0.001188784192
0.002169350698
-0.008420516421
-0.00755848083
-0.006734826927
-0.005562774203
-0.004260579956
-0.003027483841
-0.001751158396
-0.0006222343283
0.0001622294228
0.0009482918754
-0.007492702277
-0.006810848972
-0.006155804084
-0.005224181759
-0.004188534391
-0.003205970759
-0.002186883276
-0.001285317423
-0.0006576829584
-2.818585126e-05
-0.006756333506
-0.006216485964
-0.005695168885
-0.004954692172
-0.00413088732
-0.003347903915
-0.002534592303
-0.001815074508
-0.001313145183
-0.0008095093362
-0.006172811083
-0.005745064412
-0.005330085993
-0.004741506661
-0.004086291793
-0.003462127554
-0.002813240413
-0.002239237257
-0.001837952839
-0.001435263749
-0.005711212604
-0.005372056899
-0.00504172671
-0.004573762248
-0.004052468766
-0.00355492521
-0.003037423716
-0.002579574497
-0.002258850704
-0.001937032864
-0.00534684462
-0.005077762206
-0.004814783184
-0.004442575709
-0.004027751232
-0.003631138404
-0.003218511904
-0.002853325486
-0.002597136699
-0.002340050037
-0.005060001041
-0.00484642908
-0.004637078944
-0.00434085512
-0.004010611115
-0.003694531591
-0.003365611583
-0.003074332403
-0.002869739477
-0.002664472177
-0.004835137734
-0.004665560147
-0.004498827866
-0.004262949527
-0.003999853265
-0.003748056895
-0.003485798748
-0.003253491065
-0.003090279286
-0.002926420879
-0.004659751326
-0.004525093203
-0.004392376237
-0.004204177646
-0.003994501681
-0.003794003884
-0.003585033918
-0.003399638351
-0.003269413015
-0.003138756753
-0.004524162541
-0.004417189925
-0.004311303938
-0.004161010096
-0.003993886031
-0.00383362214
-0.003667431734
-0.003519657197
-0.00341601053
-0.003311786586
-0.004420670536
-0.004335492885
-0.00425109991
-0.004130333838
-0.003997280377
-0.003869701776
-0.003737200766
-0.003619203205
-0.003536858799
-0.00345404186
-0.004343197835
-0.004275419065
-0.004207420049
-0.004109705967
-0.004003764054
-0.003902126595
-0.003797090839
-0.003703457922
-0.003638378042
-0.003572405666
-0.004287693364
-0.004233092913
-0.004177648988
-0.004098315107
-0.004013197104
-0.00393187818
-0.003849183738
-0.003776012715
-0.003725520772
-0.0036734973
-0.004251353296
-0.004207179009
-0.004161322928
-0.004094543825
-0.004025019729
-0.003960546011
-0.003896687235
-0.003841625849
-0.003803358342
-0.00376279564
-0.004233842854
-0.004197056815
-0.004156973723
-0.004099059817
-0.004040927414
-0.003989880021
-0.003942748063
-0.003904105391
-0.003877330516
-0.003846938932
-0.004236233383
-0.004203907039
-0.004167081336
-0.004114542296
-0.004063699872
-0.004023203821
-0.003991131939
-0.003968926517
-0.003953869377
-0.003932577978
-0.00426558603
-0.004232865681
-0.004194810746
-0.004141277486
-0.004093898864
-0.004062701669
-0.004045229069
-0.004042624911
-0.004039586164
-0.004028499406
-0.004329245142
-0.004296567526
-0.004249508352
-0.00418156166
-0.004127728317
-0.004104195663
-0.004106275903
-0.004131653004
-0.004147422557
-0.004146634942
-0.004459737057
-0.00440457051
-0.004350952907
-0.004231112518
-0.004159026498
-0.004141859928
-0.004174094404
-0.004256391512
-0.004294944292
-0.004316746066
-0.004691920687
-0.00459823653
-0.004536735494
-0.004279369469
-0.004183387131
-0.004168496566
-0.004244087228
-0.00445528787
-0.004527911536
-0.004586526502
-0.005143796261
-0.004826447501
-0.004824997735
-0.004252800905
-0.00416994597
-0.004147404756
-0.004234030745
-0.004760875836
-0.004786662677
-0.00507481434
-0.006133726415
-0.005308657213
-0.005306435239
-0.004165667858
-0.004119738982
-0.004095245499
-0.004138886128
-0.005275691729
-0.005280615803
-0.006097633695
-0.007222127153
-0.004894425549
-0.005347553377
-0.003544684634
-0.003711276844
-0.003693136566
-0.003495492472
-0.005338267566
-0.004845340724
-0.007202130187
-0.01057921246
-0.003899559557
-0.006299738956
-0.002648291057
-0.003075129076
-0.002993863503
-0.002692879963
-0.006280153494
-0.003821266255
-0.01053647283
0.005216222362
0.001482228713
-0.0006490196908
-0.001570916334
-0.001561148137
-0.0006914242575
0.00157922803
0.005533640885
0.01026896413
0.001998933189
-0.000872589196
0.0007924653247
0.0001030108199
5.770222636e-05
0.0008027184861
-0.000780247482
0.01165390632
0.002622539064
-0.2194836523
-0.2341642801
-0.2304429624
-0.2243984529
-0.2248776635
-0.2255457503
-0.2250592571
-0.2248161211
-0.2247847108
-0.2246045778
-0.2243523283
-0.2240627417
-0.2237144814
-0.223268275
-0.222703223
-0.2219930235
-0.2211000507
-0.2199779311
-0.2185697597
-0.2168046795
-0.2145946095
-0.2118303537
-0.2083762787
-0.2040641837
-0.1986806464
-0.191964772
-0.1835325347
-0.1729964344
-0.1590518809
-0.1419409314
-0.1145069606
-0.1000665706
-0.08507685944
-0.07565730617
-0.2173566926
-0.218881002
-0.2269122278
-0.2298128767
-0.2267106097
-0.2252502077
-0.2258977749
-0.2256841244
-0.2250804229
-0.2249142975
-0.2248906613
-0.2247189166
-0.2244846094
-0.2242200147
-0.2239046355
-0.223503758
-0.2229968435
-0.2223594816
-0.2215570851
-0.2205471732
-0.2192777609
-0.2176839655
-0.2156848716
-0.2131798533
-0.2100436599
-0.2061202846
-0.2012133068
-0.1950758517
-0.1873780473
-0.1777086506
-0.165480285
-0.1504336179
-0.1335973631
-0.1191270162
-0.1050346431
-0.08850290805
-0.07785460387
-0.07647964049
-0.07220754443
-0.0590900131
-0.0637431608
-0.2183835425
-0.2215033506
-0.2281834461
-0.2285485712
-0.2249276339
-0.2241967389
-0.2253252292
-0.225359827
-0.2248278502
-0.2247469342
-0.2248531644
-0.2247768002
-0.2246080276
-0.2244074012
-0.2241623091
-0.223838483
-0.2234197412
-0.2228893238
-0.2222193052
-0.2213737917
-0.220308537
-0.2189680474
-0.2172828802
-0.215166544
-0.2125114664
-0.2091841941
-0.2050192089
-0.1998137093
-0.1933192103
-0.1852614898
-0.1753637983
-0.1635997751
-0.1504592833
-0.137094614
-0.1224416392
-0.110573
-0.1043617361
-0.09791376198
-0.09006365604
-0.08159398667
-0.07342977376
-0.05765705957
-0.06008654611
-0.218083141
-0.2208431625
-0.2268819919
-0.2271382404
-0.2246788725
-0.2248323002
-0.2260771116
-0.2259075151
-0.2251383211
-0.2250472421
-0.2251034108
-0.2249968119
-0.2248586921
-0.2247097869
-0.2245243848
-0.2242817967
-0.2239709515
-0.2235776926
-0.2230795159
-0.2224482648
-0.2216495969
-0.2206402851
-0.2193658935
-0.2177582754
-0.2157323743
-0.2131826398
-0.2099791691
-0.2059669402
-0.2009638825
-0.1947988784
-0.1872699436
-0.1783915036
-0.1681221198
-0.1577598669
-0.1478764278
-0.1385058213
-0.1291855572
-0.1203146324
-0.112525739
-0.1025778101
-0.09423436721
-0.086511299
-0.07890698416
-0.06740835202
-0.06253238256
-0.06624010192
-0.2188240798
-0.2225296693
-0.2286300752
-0.227440546
-0.2234092308
-0.2237544341
-0.2256668041
-0.2255712935
-0.2250627654
-0.2250276138
-0.2251662008
-0.2251443018
-0.2250581664
-0.2249781097
-0.2248801117
-0.2247388859
-0.2245488653
-0.224304112
-0.22399022
-0.2235884659
-0.223075933
-0.2224232388
-0.2215928844
-0.2205375119
-0.2191975675
-0.2174986843
-0.2153491592
-0.2126390817
-0.2092398237
-0.2050182606
-0.1998203524
-0.1935965374
-0.1863065389
-0.178573637
-0.1705155612
-0.1623526846
-0.154550859
-0.1468000121
-0.1387883659
-0.1303051412
-0.120085693
-0.109311709
-0.09908329626
-0.09047523391
-0.08701889719
-0.07924380914
-0.0694090082
-0.2191571154
-0.2228644474
-0.2283257612
-0.2266635125
-0.2227598345
-0.2237345635
-0.2259077
-0.2256079824
-0.2252423039
-0.2252570831
-0.2253889001
-0.2253848287
-0.2253351226
-0.225314775
-0.225291042
-0.2252442332
-0.2251781762
-0.2250916332
-0.2249765817
-0.224824068
-0.2246235138
-0.2243607936
-0.224017347
-0.2235691439
-0.2229851406
-0.2222253689
-0.2212382451
-0.2199597143
-0.2183061798
-0.2161920261
-0.2134845858
-0.2101097392
-0.2059632472
-0.2010394058
-0.1952493294
-0.1886889643
-0.1815114094
-0.1738159861
-0.1653157259
-0.1561244315
-0.1454940163
-0.1353974728
-0.1275703652
-0.1164866057
-0.106133801
-0.09779882543
-0.09476259147
-0.07981417966
-0.09926251116
-0.2191949912
-0.2229287169
-0.2283823577
-0.2267184283
-0.2228240655
-0.2237988831
-0.2259794906
-0.2257014451
-0.2253531861
-0.2253854197
-0.225548482
-0.2255942706
-0.2255971901
-0.2256415735
-0.2257026506
-0.2257610069
-0.2258264906
-0.2259051555
-0.2259975547
-0.2261054591
-0.2262316873
-0.2263788145
-0.2265491004
-0.226744398
-0.2269656852
-0.2272123211
-0.2274809111
-0.2277633239
-0.2280427327
-0.22828594
-0.2284195539
-0.2283045376
-0.227687295
-0.2261279284
-0.2230188281
-0.2180593307
-0.2115955096
-0.203978795
-0.1949655586
-0.1846272092
-0.1737012385
-0.1630293661
-0.1531859542
-0.1412289261
-0.1317591633
-0.1246227997
-0.1185090145
-0.1131592847
-0.112449525
-0.1088360957
-0.218906603
-0.2225988568
-0.2287677567
-0.2276119838
-0.2235693531
-0.223916776
-0.225862193