/*--------------------------------*- C++ -*----------------------------------*\
| =========                 |                                                 |
| \\      /  F ield         | OpenFOAM: The Open Source CFD Toolbox           |
|  \\    /   O peration     | Version:  4.1                                   |
|   \\  /    A nd           | Web:      www.OpenFOAM.org                      |
|    \\/     M anipulation  |                                                 |
\*---------------------------------------------------------------------------*/
FoamFile
{
    version     2.0;
    format      ascii;
    class       surfaceScalarField;
    location    "3";
    object      phi;
}
// * * * * * * * * * * * * * * * * * * * * * * * * * * * * * * * * * * * * * //

dimensions      [0 3 -1 0 0 0 0];

internalField   nonuniform List<scalar> 
70319
(
0.478884791
-0.1225336735
0.04349917473
-0.1794942276
-0.2203560646
0.4690174811
0.008031442187
0.001835867735
0.4670908345
0.01091846465
-0.008991818019
0.4674499501
0.01035432513
-0.01071344067
0.4675071574
0.005493186041
-0.00555039338
0.4669789226
0.001095069226
-0.0005668343216
0.4663178566
-0.000263850147
0.0009249161021
0.4658186051
-0.0003417396258
0.0008409911229
0.4655806084
-6.098586666e-05
0.0002989826449
0.4655187469
0.0002504560524
-0.0001885945385
0.4654919627
0.0004878404376
-0.0004610562264
0.4654385462
0.0007127378099
-0.0006593213187
0.4653505506
0.0009496007713
-0.0008616051635
0.465233317
0.001212272364
-0.001095038737
0.4650851746
0.001526277283
-0.001378134918
0.4648985602
0.001915600847
-0.001728986426
0.4646627877
0.002402709074
-0.002166936591
0.4643642455
0.003012702099
-0.002714159825
0.463985656
0.003776304773
-0.003397715351
0.4635049259
0.004731794174
-0.004251064082
0.4628935685
0.005926812196
-0.005315454765
0.4621146025
0.007420484752
-0.006641518716
0.4611195741
0.009286000064
-0.008290971721
0.4598446722
0.01161360336
-0.01033870152
0.4582042533
0.01451488014
-0.0128744612
0.4560886653
0.01812745016
-0.01601186226
0.4533228145
0.02263709693
-0.01987124616
0.4497566165
0.02826683903
-0.02470064105
0.444478
0.03548172454
-0.03020310809
0.4373266481
0.04481008027
-0.0376587284
0.4283578521
0.05616603328
-0.04719723732
0.4097748778
0.07404172877
-0.05545875452
0.3567081996
0.08753913677
-0.03447245871
0.1902096973
0.1664985022
0.09685143795
-0.002354851824
0.005313545873
0.8817537154
-0.004001961344
-0.01397559062
-0.1100342965
-0.1671487301
-0.307943537
-0.2457496206
-0.03405815236
0.001158173065
0.777293893
0.006169386732
-0.02424323785
0.7867711913
0.004096991487
-0.00554284766
0.7843517542
0.00369164046
0.009646261369
0.7755744342
0.003209412215
0.01592223286
0.7663687278
0.00221325506
0.01248563739
0.7606227533
0.001172928803
0.005668115003
0.7581525147
0.0006778016871
0.001528586733
0.7570271869
0.0005474420951
0.0002361460674
0.7564182773
0.0005892364961
-4.131272223e-05
0.7560734641
0.0006759273632
-8.065810329e-05
0.7558713727
0.0007911588646
-0.0001012269974
0.7557315693
0.0009881338699
-0.000135592629
0.7556093377
0.001253051786
-0.0001812193841
0.7554790995
0.001578632981
-0.000236122419
0.7553246145
0.001981874762
-0.0003011125078
0.7551332352
0.002486484348
-0.0003795041576
0.754892035
0.003119787181
-0.0004758779736
0.7545854006
0.003914623822
-0.0005952872746
0.7541936161
0.004911657662
-0.0007435684157
0.7536913193
0.006161838418
-0.0009277474341
0.7530454709
0.00772900273
-0.001156342119
0.7522125002
0.009693063223
-0.001439607848
0.7511343238
0.01215384571
-0.001789669222
0.7497329406
0.01523553985
-0.002220553325
0.7479026275
0.01909249973
-0.002747306502
0.7455011205
0.0239152384
-0.003386281202
0.7423240894
0.02995558875
-0.00414146078
0.7380975658
0.03752227243
-0.005028909826
0.7322484938
0.04721456923
-0.005883772782
0.7246888698
0.05945860034
-0.007088896095
0.713697564
0.07591432419
-0.008756985184
0.6948971178
0.09636055108
-0.003518376138
0.6414346942
0.1193372235
0.02166433674
0.5120704386
0.1353282737
0.184245679
0.4468030032
0.1364970982
-0.07122966297
0.4096975111
0.148936889
-0.1118313971
0.3523788495
0.1636819125
-0.1063632512
0.2360326863
0.1163461629
0.004053867133
0.1921785665
-0.001664309909
0.0320634209
0.9029317937
0.0001262688049
0.005236179931
-0.1962702246
-0.2098324117
-0.2506382646
-0.2555553028
0.9178104789
0.0001106048795
-0.008819903322
0.9211032346
0.0002678033047
0.0005364325142
0.9123997261
0.0003477017002
0.01204744725
0.900863482
0.0003344401304
0.01441121615
0.8928857099
0.0003161054952
0.009874921687
0.8892788997
0.0003328883866
0.004446850596
0.8881167507
0.0003760831789
0.001463867606
0.887728519
0.0004391882081
0.0004964855312
0.887541474
0.000541123145
0.0002351583478
0.8874174462
0.0006730245609
0.0001269306384
0.8873236204
0.000831245234
5.373945069e-05
0.8872507152
0.001047736716
1.330240146e-05
0.8871869868
0.001323363925
-6.583777407e-06
0.8871198355
0.001664589247
-1.88049238e-05
0.8870404505
0.002089427056
-2.816728288e-05
0.8869415839
0.002622422073
-3.707114664e-05
0.8868152045
0.003292490899
-4.632435572e-05
0.886651363
0.004134758286
-5.629296409e-05
0.8864371258
0.005193095104
-6.720021281e-05
0.8861553771
0.006522718377
-7.91312927e-05
0.8857831249
0.008193169792
-9.191486457e-05
0.885289169
0.01029200814
-0.0001049889624
0.8846307477
0.01292945611
-0.0001171891798
0.8837488435
0.01624381023
-0.0001263661342
0.8825615699
0.02040813584
-0.0001283625817
0.8809560528
0.02563692968
-0.0001161741856
0.8787731069
0.03221089133
-7.235671753e-05
0.8757857349
0.04048752062
2.212377538e-05
0.8716960548
0.05110744523
0.0001968040598
0.8659499413
0.06473362553
0.0004710882533
0.8574552835
0.08342868932
0.0009802926726
0.8431661235
0.1060373176
0.004612393395
0.8159717931
0.1321833599
0.0143481939
0.7667705985
0.15776172
0.02676774816
0.7221468863
0.1796040565
0.001516753861
0.6815930272
0.2023541603
-0.01286341239
0.6220883805
0.2297583927
-0.006571833804
0.5036866546
0.2349815971
0.1194528148
0.4143884835
0.2273012126
-0.1380030418
0.3434543328
0.2213993184
-0.1504651682
0.2665912527
0.07686307973
-0.00070217312
0.2043378365
0.002016874933
0.03571992585
0.9027770717
0.002582796211
0.004945995741
-0.2096115478
-0.1956043966
-0.2551790643
-0.2497845862
0.9180083351
-0.006201727373
-0.008918931105
0.9214107283
-0.00361416844
0.0004795785034
0.9128127065
-0.003048129586
0.01199385312
0.9013620799
-0.002583998559
0.01436906526
0.8934310019
-0.001619831352
0.009867014879
0.8898436627
-0.0005354756904
0.004455703356
0.8886844393
5.17585703e-05
0.001483547932
0.8883028685
0.0003047292377
0.000516029863
0.8881348542
0.0004675377534
0.000241599706
0.8880475632
0.0006257204372
0.0001345950338
0.8880060054
0.0007937086589
7.909442858e-05
0.8879951046
0.001005279253
5.33582582e-05
0.8880025177
0.001269903918
4.60469759e-05
0.8880226187
0.001596504759
4.798345514e-05
0.8880525976
0.002003700511
5.574769714e-05
0.888091155
0.002515426445
6.84382184e-05
0.8881375698
0.003159804581
8.627153424e-05
0.8881910011
0.00397107329
0.0001102536998
0.8882500483
0.00499211918
0.0001419286834
0.888312247
0.006277108664
0.0001834110487
0.8883732983
0.007894562763
0.0002375556806
0.888425949
0.009931227486
0.000308129978
0.8884584346
0.0124969588
0.0004000116981
0.8884524183
0.01573044099
0.0005193854703
0.888380833
0.01980597656
0.0006737445798
0.8882066921
0.02493937306
0.0008716975132
0.8878865935
0.03140953446
0.001121455353
0.8873751475
0.03956369365
0.001435273019
0.886642836
0.05001230099
0.001827455699
0.8855117883
0.0633766142
0.002488058973
0.883152596
0.0815096672
0.004278214268
0.8772318564
0.1048512079
0.007106849244
0.8661320091
0.1321169304
0.01116627674
0.848982847
0.1616828063
0.01322807572
0.831228769
0.1894577648
0.007900369579
0.8111489338
0.2205165452
0.001917450178
0.7812597697
0.2624769729
-0.002829416238
0.7237694645
0.2869056843
0.005566217714
0.6655186822
0.302463557
-0.01691156235
0.5864751453
0.317684723
-0.0172418681
0.476153764
0.3053925279
0.07152010543
0.3432920057
0.2785624875
-0.14570073
0.2792721866
0.06401981838
-0.001700399377
0.156463117
0.001179368092
0.0259456388
0.8819250921
-0.01507972881
-0.1666368255
-0.1097843355
-0.2447250801
-0.3076914778
-0.0357942031
0.00036935496
0.7777572311
0.1222830084
-0.02431687481
0.7874288398
-0.007862906872
-0.005422870209
0.7851411895
-0.0105560188
0.009795539562
0.7764594614
-0.009958155874
0.01605588542
0.7673367321
-0.005075910642
0.01257880862
0.7616660133
-0.0006350849886
0.00577032805
0.7592529583
0.0008167490494
0.001648064577
0.7581948839
0.0009867343148
0.0003760693291
0.7576664642
0.0008590282107
0.0001369292298
0.7574156468
0.0007455043424
0.0001310335226
0.7573130192
0.0007457884712
0.0001505477778
0.757298715
0.0008396121173
0.0001799713256
0.7573404674
0.00100990152
0.0002182500544
0.7574204358
0.001249796244
0.0002667400836
0.7575306173
0.001563074779
0.0003304442162
0.7576712427
0.001961428406
0.0004133726669
0.757846659
0.002464758272
0.0005196300418
0.7580630531
0.003099891654
0.0006547875238
0.7583280644
0.003900916111
0.0008261917174
0.7586507364
0.004911192408
0.001043244271
0.7590414307
0.006185960209
0.001317908221
0.7595116721
0.007795682228
0.001665303866
0.760073845
0.009830440805
0.002104345067
0.7607407528
0.01240523501
0.002658298251
0.7615257603
0.01566640075
0.003354568245
0.7624437619
0.01979694029
0.004224431135
0.7635257822
0.0250334523
0.005294061859
0.7648297729
0.03166360915
0.006596093733
0.7665462507
0.04020015931
0.008095663849
0.7685913323
0.05115054868
0.01018098386
0.7695962281
0.06531450469
0.01519026662
0.7689283806
0.0839011384
0.02161791703
0.7675441101
0.1055819968
0.02791920391
0.7688741921
0.1303398334
0.03001289082
0.7770860833
0.1560659542
0.02517991932
0.7941116698
0.1894511774
0.014039781
0.8182254118
0.2530573093
-0.01469407853
0.8137488614
0.2996011917
-0.008218957133
0.7882471624
0.3357020718
-0.007736816123
0.7443299965
0.3656443059
-0.004042417387
0.6680684707
0.3771889775
0.00446507566
0.5683872824
0.3789326817
-0.0006890066321
0.4122397201
0.3501744504
0.08524529727
0.3263343361
0.08590538334
0.4792300704
0.04320018319
-0.2205210149
-0.1796262303
0.4694650307
0.001902132858
0.4676751412
-0.0087661293
0.468146109
-0.01042912362
0.4682805668
-0.005210368442
0.4677803173
-0.0001348355282
0.4671615963
0.001435470075
0.4667298093
0.001418521374
0.4665687274
0.001020110105
0.4665899682
0.0007242635301
0.4666628972
0.0006728594782
0.4667497174
0.0007527918941
0.4668427046
0.0009169143248
0.4669504205
0.001142080354
0.4670824346
0.001431060739
0.4672464854
0.001797377547
0.4674504456
0.002260798138
0.4677036665
0.00284667071
0.4680174786
0.003587104037
0.4684056352
0.004523035758
0.4688847908
0.005706804632
0.4694750871
0.007205385948
0.4702008443
0.009104683622
0.47109129
0.01151478924
0.4721819487
0.01457574205
0.4735126508
0.01846623819
0.4751440969
0.02340200619
0.4771230956
0.02968461038
0.4798787007
0.03744455423
0.4840106226
0.04701862666
0.4866185047
0.06270662259
0.4871289739
0.08339066907
0.4868458924
0.1058650782
0.4925352862
0.1246504396
0.5139954075
0.1346058327
0.5787947342
0.1246518506
0.6927444272
0.2857698675
-0.1466622515
0.7617055365
0.2432163256
-0.01257624345
0.7972183537
0.3161178371
-0.01592858278
0.7976568282
0.3693461285
-0.004140297379
0.7642521438
0.4105820956
1.156568931e-05
0.7043020184
0.4341530986
0.004729707955
0.5971903594
0.4396447353
0.01764137339
0.4684388996
0.4027624573
0.05232333768
0.3197758419
0.3564351666
-0.2077721099
0.3075311534
0.01224468781
0.4189639118
-0.1331940444
0.5415619465
0.1206182907
0.6578521193
0.3138200679
-0.1139924039
0.7307064048
0.2978921075
-0.001400264868
0.7658652236
0.3827434805
-0.007320204111
0.7575435404
0.4396297132
0.002845068103
0.710710955
0.4816778332
0.004799486966
0.6218170529
0.4909966039
0.0006597548041
0.5229245388
0.4735607003
-0.01823302037
0.3718331739
0.4285330895
0.03008942777
0.3329499177
0.03888325513
0.4055320534
-0.09171198575
0.527573761
0.1758503997
0.6320218568
0.3424254298
-0.06413004562
0.6991233339
0.356887888
0.01564034765
0.7255678958
0.457160015
-0.001926744319
0.6993319024
0.5201091527
-0.002876555884
0.6325266556
0.5415637574
-0.001197811161
0.529092274
0.5273457639
0.004621705825
0.3671830057
0.4647448672
0.03011431823
0.348004982
0.01917802223
0.3918174108
-0.04939198136
0.5257353874
0.222969911
0.6290917071
0.3944760521
-0.04067235755
0.6932403731
0.4618127375
-0.005852251701
0.6814094269
0.5491101899
0.004284512544
0.6174230753
0.5878503443
0.003481769805
0.5053600292
0.5751488571
0.001659053827
0.3545349219
0.4993654504
-0.0005353613168
0.3623720388
-0.007837118734
0.4435709991
-0.04909494763
0.5497491119
0.3673776988
-0.01174307516
0.6221836684
0.443902156
0.03277347589
0.6383703934
0.5635025334
0.008161084109
0.5840481405
0.6348758284
-0.005404720304
0.4730271579
0.6237947295
-0.01340829957
0.3403758125
0.5384306354
-0.04340725075
0.3807551
-0.04037928934
0.3428273865
0.02455031122
0.4823296831
0.3043998582
0.5538753247
0.4562537953
0.03570309385
0.5981505648
0.5999622872
-0.009361701002
0.5536278203
0.6873310275
-0.01901355504
0.4435208071
0.6788202495
-0.03028260329
0.3337245769
0.5785552421
-0.08800391114
0.4070188787
-0.07329430251
0.4429209226
0.01333287132
0.5328370398
0.5305213984
-0.02047523078
0.5638420786
0.6842765987
-0.02795061208
0.5176586692
0.7523768416
-0.02737318448
0.4034466321
0.7332023305
-0.04043505285
0.3119435481
0.5957500256
-0.09722806172
0.3694577188
-0.05751416954
0.4423129999
0.3829335251
-0.2947251293
0.5394118067
0.6271943247
-0.04001653479
0.5372654791
0.7777520421
-0.02322887494
0.4784717825
0.8146252911
-0.02262926585
0.3462632804
0.7454668803
-0.01750835274
0.5416555121
0.1740654866
0.37190961
0.01102391344
0.4573313556
0.4964927743
0.045279802
0.5198158863
0.7229394879
-0.007671978639
0.5006779771
0.852009709
-0.0182465106
0.4218926715
0.8519005505
-0.02764836603
0.3566544351
0.739664556
-0.1327708069
0.4952659244
-0.1386114891
0.4096501027
0.08684267009
0.4596081951
0.6119961098
0.06098528346
0.4925220475
0.8356365532
-0.01654069824
0.4607375364
0.9091121026
-0.0254270422
0.3638695989
0.8830708079
-0.04653831493
0.3103997463
0.7016612542
-0.1529254774
0.4198317559
-0.1094320095
0.3771202905
0.4634953381
-0.2286195209
0.4675497351
0.7671103955
-0.02190328826
0.4675436645
0.9278641856
-0.01874601334
0.4153208837
0.9534338664
-0.01814027812
0.297660948
0.8392868241
-0.01996563441
0.5788147483
0.1386779554
0.3752476319
0.08824770497
0.4112648724
0.6418032564
0.08928989703
0.446998579
0.898531421
-0.006400942818
0.4212427718
0.988227899
-0.009038225912
0.3416817003
0.9358570127
-0.0170091172
0.305716093
0.7482315677
-0.1334512124
0.4220744247
-0.1163583318
0.3309215841
0.4943750332
-0.1834933623
0.4145946751
0.8181215628
-0.003263233493
0.4154582236
0.9902862291
-0.002921879047
0.3614848423
0.9918246548
-0.001994261172
0.2468984533
0.8560069726
0.006810983921
0.5128600763
0.1561128014
0.3548526533
0.1395223789
0.348832906
0.6742965996
0.1498447091
0.3786311937
0.9475408057
0.01294713513
0.3528866656
1.016704867
0.0008643155488
0.2697821461
0.9248378283
0.01427366362
0.6297597201
0.1528825021
0.2798862721
0.5194535779
-0.1250432516
0.3465580618
0.861167434
0.01970158117
0.3353243567
1.023433543
0.004505028786
0.271489401
0.9962403299
-0.007567546072
0.2812048281
0.7858820449
-0.1658377521
0.4376972319
-0.156492404
0.3304434868
0.1890100902
0.2867962667
0.7101937023
0.194620951
0.3053261661
0.9903041618
0.01459948117
0.2708686076
1.029044935
0.001652953057
0.1832303523
0.8674019531
0.006118346803
0.4998955371
0.1210320468
0.2250618233
0.6316429218
-0.1465110435
0.2686823733
0.9606331664
-0.01394955495
0.2514598512
1.04742489
-0.001157433659
0.1769372524
0.9194673013
0.02245725028
0.5510999267
0.1257328626
0.1916773446
0.6074100209
-0.1674444441
0.2335352893
0.9467052504
-0.02793002882
0.2270518891
1.061741581
-0.007833290666
0.1739838559
0.9646976851
0.007837649262
0.6412263717
0.08385741102
0.165609787
0.5980303116
-0.1562300778
0.1989588236
0.946496207
-0.0331399933
0.1957285006
1.080303484
-0.0153315793
0.1591592251
1.027191888
-0.02592492722
0.2292702938
0.8070414077
-0.2359261045
0.4318008542
-0.20253056
0.1382707786
0.5934476631
-0.1336881301
0.1649836752
0.9506357535
-0.03085244306
0.1651432571
1.094109642
-0.01396573974
0.1426701924
1.063728305
-0.0140633517
0.1018670766
0.8734312081
-0.02558668408
0.491462818
0.0422051134
0.107987325
0.5899449233
-0.1044845852
0.1311563426
0.9527019741
-0.02523523799
0.1343072382
1.100994823
-0.01003607639
0.1214547225
1.081568847
-0.004988025975
0.08895585271
0.8986943475
0.007235730971
0.518216396
0.0622022752
0.08071980985
0.5879182962
-0.07869318257
0.1018920265
0.9517455924
-0.0202158347
0.1063705289
1.103691627
-0.007175306012
0.1013464278
1.089319227
-0.00272627906
0.07507182444
0.9116214078
0.01334754353
0.5382367066
0.05505151427
0.05863175674
0.5869739825
-0.05768744263
0.07535632806
0.9502958866
-0.01527486525
0.0794769689
1.104524283
-0.004953296437
0.07787387541
1.092858352
-0.001936030438
0.05991887582
0.9198205164
0.009755891413
0.5540170221
0.04413856076
0.04369614457
0.5878388867
-0.04456104836
0.05661681462
0.9493692164
-0.01199399943
0.05953633096
1.104783736
-0.00317896941
0.05788258465
1.095056722
-0.0005446235131
0.04582678492
0.9245285592
0.007347757267
0.5624871148
0.03735669254
0.03419950452
0.5875042923
-0.0338649097
0.04455882496
0.9481776694
-0.009167773009
0.04637085236
1.104764362
-0.001792653135
0.04432434566
1.096865057
0.0002381721461
0.03532945995
0.9279320648
0.00559138051
0.5672763338
0.03054024116
0.02739582158
0.5867464024
-0.02663793126
0.03575361131
0.946914107
-0.007094226897
0.03680680821
1.104701003
-0.000989837418
0.03480435217
1.098431929
0.0004355846761
0.02741731529
0.9306924196
0.004626682447
0.5698772254
0.02481642403
0.02196048128
0.5858331839
-0.02104726237
0.02859773016
0.9457850268
-0.005508168255
0.0291815394
1.104684123
-0.0005669283865
0.02756041648
1.099726593
0.000326458981
0.02137661755
0.9329366057
0.003939613156
0.5716745187
0.01957932451
0.01749142294
0.5848187116
-0.01647695022
0.02271831311
0.944793445
-0.004235307979
0.02307582146
1.104652267
-0.0003256517871
0.02189307849
1.100736832
0.0001725040597
0.01679740636
0.9347302085
0.003302069653
0.5732549753
0.01521694995
0.01387364855
0.5838221188
-0.01287705541
0.01798486176
0.9439420329
-0.003259800763
0.01825126301
1.104570655
-0.0001847891514
0.01741687182
1.101496435
7.478913727e-05
0.01331001336
0.9361361776
0.002700889733
0.5746455305
0.01191945844
0.01097269369
0.5829602155
-0.01011079001
0.01419577203
0.9432554651
-0.00253651024
0.01440544389
1.104467554
-0.0001065702403
0.01381817024
1.102056534
2.717517605e-05
0.01057602598
0.9372064878
0.002171834383
0.5757666308
0.009454925966
0.008636792856
0.5822837364
-0.007960313432
0.01113462515
0.9427440802
-0.001986446993
0.01128573921
1.104377752
-6.131198545e-05
0.01087729116
1.102458261
6.720568527e-06
0.008365655916
0.9379869332
0.00173119015
0.576609125
0.007523161886
0.006750320292
0.5817895851
-0.006256168643
0.00864826232
0.9423974482
-0.001551309732
0.00874013491
1.104317014
-3.113423602e-05
0.008472449102
1.10273281
-6.862117696e-06
0.006563749458
0.9385236256
0.00137200753
0.5772134668
0.005959407939
0.005246053806
0.5814458134
-0.00490228178
0.006661956803
0.9421863145
-0.001204768969
0.006700382692
1.104289991
-1.140287501e-05
0.006541684022
1.102910502
-1.899296478e-05
0.005115303728
0.9388685706
0.001081435541
0.5776324502
0.004696320556
0.004080075002
0.5812087174
-0.003842978667
0.00513113391
0.9420717557
-0.0009364998403
0.005069577609
1.104355855
-4.307030136e-06
0.005055224022
1.10295531
-3.045414098e-05
0.0039896898
0.9390825628
0.000851542282
0.5779220633
0.00370007694
0.003206273321
0.5810342419
-0.003031797492
0.004012135727
0.94200115
-0.0007352564441
0.004017277815
1.104351664
-9.50898644e-07
0.003974433411
1.103033107
-3.495226678e-05
0.003149392931
0.9392305437
0.0006770599054
0.578135327
0.002936129427
0.002563645214
0.5808882716
-0.002417674713
0.003215535412
0.9419358488
-0.0005865887552
0.003227551906
1.104337632
2.015962653e-06
0.00319476438
1.103093418
-2.752376994e-05
0.002527227645
0.9393512983
0.0005467822766
0.5783091317
0.002353423058
0.002079076533
0.5807543491
-0.001945153766
0.002628925667
0.9418605698
-0.0004745699042
0.002650614405
1.104314335
1.608388312e-06
0.00261371286
1.103149368
-1.904823452e-05
0.002053036475
0.9394654541
0.0004465208398
0.5784621561
0.001900012303
0.001692987978
0.5806301681
-0.001568806717
0.00216203819
0.9417771221
-0.0003856022877
0.002191665151
1.104284225
4.83129982e-07
0.002149754831
1.103203127
-1.18483612e-05
0.00167361388
0.9395759117
0.0003656835627
0.5785992196
0.00153655051
0.001373053762
0.5805189483
-0.001261833779
0.001768473722
0.9416937314
-0.0003120291039
0.001801303507
1.104251576
-1.806490997e-07
0.001758811487
1.103252625
-7.006024095e-06
0.001358909652
0.9396777194
0.0002980943255
0.5787190665
0.001239062893
0.001106301515
0.5804234106
-0.00101076367
0.001433272807
0.9416174909
-0.0002507306256
0.001464871757
1.104220404
-4.267654776e-07
0.001425910397
1.103296062
-4.475255172e-06
0.001096118859
0.9397664466
0.0002410645438
0.5788204111
0.0009947743778
0.0008866699627
0.5803439247
-0.0008071838156
0.001152607606
0.9415518677
-0.0002003142558
0.001180503093
1.104193009
-5.003404464e-07
0.001147129544
1.103332785
-3.349235278e-06
0.0008793206225
0.9398406956
0.0001935600163
0.5789038429
0.0007958890027
0.0007085140862
0.5802791401
-0.0006437293127
0.0009227351677
0.9414972567
-0.0001596100062
0.0009462887595
1.104169981
-5.252211004e-07
0.0009187682843
1.10336306
-2.754277855e-06
0.0007032509898
0.9399014556
0.0001547574466
0.5789714185
0.0006356755262
0.0005660226791
0.580226755
-0.0005136374988
0.0007381243716
0.9414524322
-0.0001272769948
0.0007576770156
1.104151009
-5.803794751e-07
0.0007352105603
1.103387833
-2.306860995e-06
0.0005621118242
0.9399509548
0.0001235996307
0.5790258121
0.0005077182473
0.0004538675945
0.5801839172
-0.000411029672
0.0005942708521
0.9414143063
-0.000102277262
0.0006110708465
1.104134977
-7.683122274e-07
0.0005918604965
1.103408889
-1.845386798e-06
0.0004510501002
0.9399926593
9.910608816e-05
0.5790703295
0.0004065328347
0.0003701745396
0.580146609
-0.0003328662295
0.0004895895382
0.9413786886
-8.379718407e-05
0.0005058640488
1.104120045
-1.342586117e-06
0.0004872621389
1.103428668
-1.176946571e-06
0.0003675987567
0.9400316063
8.071647426e-05
0.5791090658
0.000328862551
0.0003160366986
0.5801081649
-0.0002775924609
0.0004313133826
0.9413358798
-7.24677705e-05
0.000451363018
1.104102631
-2.635074085e-06
0.0004278148908
1.103451962
2.547156228e-07
0.0003137063358
0.9400768711
6.884378918e-05
0.5791489448
0.0002738273976
0.0002970292526
0.5800589435
-0.0002478077293
0.0004280493041
0.9412738078
-6.894798236e-05
0.0004588086195
1.104077078
-5.206303961e-06
0.000423629849
1.103484854
2.286198547e-06
0.0002946396842
0.9401414681
6.439322394e-05
0.5792000156
0.0002435689639
0.0003165436338
0.5799861235
-0.000243723552
0.0004879998019
0.9411762835
-7.393186915e-05
0.0005366343936
1.104037705
-9.262131974e-06
0.0004798996543
1.10353572
5.869084838e-06
0.0003127530325
0.9402410892
6.752558659e-05
0.5792747544
0.0002380142555
0.0003615271631
0.5798820242
-0.0002574278018
0.000589497186
0.9410335415
-8.522797512e-05
0.000664166245
1.10397813
-1.509415405e-05
0.0005815064469
1.103608549
9.830563565e-06
0.000359357429
0.9403872911
7.594717167e-05
0.5793830496
0.0002510622565
0.0004065540759
0.5797500049
-0.0002745348065
0.0006849013195
0.940853139
-9.794463841e-05
0.0007825571291
1.103903061
-2.258587868e-05
0.0006741667954
1.103706389
1.055078275e-05
0.0004034979979
0.9405760063
8.195367658e-05
0.579521418
0.0002651296849
0.0004115711182
0.5796105988
-0.0002721649305
0.0007054000604
0.9406643176
-0.0001050074927
0.0008879343383
1.103756593
-3.606651541e-05
0.0007074879471
1.103887004
-1.690565002e-07
0.0004142944092
0.9407913657
7.783420872e-05
0.5796745948
0.0002611176571
0.000358427633
0.5794911751
-0.0002390039016
0.0006187320866
0.9405081271
-0.0001041139304
0.0007261135416
1.103699168
-4.995663536e-05
0.0006336864075
1.103995371
-1.593962956e-05
0.0003689994683
0.9409992864
5.676625991e-05
0.5798194135
0.0002241807656
0.0002666470437
0.5794133318
-0.0001888036464
0.0004623790588
0.940412204
-9.980892874e-05
0.0005467910976
1.103677419
-6.266242527e-05
0.0004818965498
1.10409897
-3.87044866e-05
0.0002820872025
0.9411784731
2.062264446e-05
0.5799372452
0.0001642555319
0.0001653527693
0.5793917617
-0.0001437826814
0.0002896675587
0.9403942926
-0.0001064033659
0.0003499273859
1.103708835
-9.167578948e-05
0.0003151057184
1.104211765
-7.797330429e-05
0.000190590184
0.9413334783
-3.048961025e-05
0.5800382465
8.958889418e-05
8.987240945e-05
0.5794106766
-0.0001087872629
0.0001449843352
0.9404689152
-0.0001297344076
0.0001889588328
1.103802269
-0.0001374088544
0.0001839498273
1.104348492
-0.0001317181223
0.0001099471133
0.9414961456
-8.86645533e-05
0.5801206129
2.758074714e-05
-5.586036561e-05
0.5795580741
-9.153718361e-05
1.770063832e-05
0.9406055192
-0.0002101650447
8.024802455e-05
1.103961493
-0.0002217713471
0.0001288815438
1.104520095
-0.000220236092
0.0001552670435
0.9416599247
-0.0001901646009
0.5802870617
-1.11817375e-05
8.436606324e-05
0.5796005004
-0.000126792258
-1.92512356e-05
0.9407247084
-1.557181826e-05
1.808382639e-05
1.104139888
-0.0002157301195
5.983214797e-05
1.104691948
-0.0002136013083
-5.239996385e-05
0.9417704845
1.67233572e-06
0.5803193615
-8.469976349e-05
-0.001618957228
0.5810818904
0.0001375671957
-0.0007498862957
0.9394053183
0.0004503191272
1.242387784e-05
1.103359078
1.850018753e-05
0.0007747196446
1.103908443
2.120934363e-05
0.001640781977
0.9404251543
0.000479267911
0.581784915
0.0001752284997
-0.002875172153
0.5771444164
0.006812646212
-6.208129089e-05
0.9309382064
0.005654021148
0.0001083058025
1.102823787
0.0003649036259
0.0002157581149
1.103403978
0.0003970123193
0.003017024592
0.9319075383
0.005716349591
0.577847057
0.006954882661
0.1482625143
-0.05337291465
0.214910513
0.2673443038
-0.005003221294
1.068135745
0.0160681968
0.0004396642398
1.100969235
-0.003588333594
0.005725278812
1.101627443
-0.003509079582
-0.1479002948
1.069165663
0.01636744937
-0.0530392364
0.2678126145
0.2151733841
0.00460039598
0.1366183821
-0.003135150843
0.207471519
0.3816060701
0.3037526342
-0.003060604522
0.04028249928
0.001119867974
0.2424156293
-0.02383086233
0.2593674073
0.309682314
0.3168152748
-0.002156604269
0.2596708384
-0.02349286453
0.2424061245
0.3168065765
0.3095132408
0.207269342
-0.001723560514
0.1363336917
0.303041009
0.3817235161
-0.002207645683
0.04257270576
0.002991378061
0.1201058036
0.01352120041
-0.00410026116
0.0009594982971
0.2375814051
0.007974987075
-0.0007581451172
-0.0007587847583
0.2546396101
0.006548158181
0.00315835158
-0.002087558199
0.1947145223
0.01148402637
0.5146851595
0.01063397159
0.0465778681
-0.1263307466
-0.168974818
-0.2765914345
0.5098875305
0.005043825511
-0.0002461964801
0.5089719538
0.003409494502
-0.002493917735
0.5047440476
0.004346330855
-0.0001184246318
0.4990880106
0.003929022819
0.001727014164
0.495215181
0.002480140052
0.001392689626
0.4933932336
0.001292820321
0.0005291270051
0.4927923965
0.0006649795636
-6.414235253e-05
0.4926294458
0.0004438825239
-0.0002809318415
0.4925664178
0.0004503984693
-0.0003873704202
0.4924947359
0.0005742491425
-0.0005025672787
0.4923832665
0.000744295048
-0.0006328256374
0.4922242233
0.0009478940387
-0.0007888507775
0.4920156185
0.001194454726
-0.0009858499475
0.4917503567
0.001499020186
-0.001233758351
0.4914154206
0.001878552287
-0.00154361618
0.4909932258
0.002352606691
-0.001930411946
0.4904614549
0.002944706924
-0.002412935992
0.4897919204
0.003683782437
-0.003014247946
0.4889489426
0.00460555635
-0.003762578569
0.4878872232
0.005753972106
-0.004692252642
0.4865490154
0.007182782168
-0.005844574453
0.4848603708
0.008957447138
-0.007268802478
0.4827256442
0.01115792064
-0.00902319407
0.4800215788
0.01388355155
-0.01117948622
0.4765755208
0.01726595207
-0.01381989405
0.472173114
0.021482506
-0.01708009926
0.466295555
0.02682264673
-0.02094508774
0.4582851831
0.03381761641
-0.02580724454
0.4448177332
0.04257135758
-0.02910390776
0.4258281731
0.05762204255
-0.03863248248
0.3655112855
0.07675056819
-0.01643368064
0.2030427677
0.1624685177
0.007311775519
0.199185097
0.007150971409
0.01466700522
0.9562452043
0.1025688308
-0.00400358528
-0.2199741299
-0.294602944
-0.2368341248
-0.2462207774
-0.01538698815
-0.05126100693
-0.01259241167
0.01441571314
0.008014477408
-0.0003682574476
0.9597335901
0.005441393923
0.001704191933
0.9536086131
0.01061030245
0.0005585001148
0.9414553321
0.008908653121
0.006654122356
0.9307477611
0.005905419468
0.00914848239
0.9242688486
0.003471555295
0.006936380108
0.9216314827
0.002171576378
0.0029459295
0.9208340239
0.001430469106
0.0006598100877
0.9205094794
0.000976225186
1.32988548e-05
0.9202838873
0.0008347259295
-0.0001652512488
0.9200832214
0.0008647700061
-0.0002137055865
0.9198847445
0.001026540311
-0.0002538142848
0.9196623755
0.001289297123
-0.000322633093
0.9193964864
0.001627688571
-0.000413905373
0.9190657619
0.002050546171
-0.0005253669472
0.9186498894
0.002576197746
-0.0006613050624
0.9181256417
0.003231724816
-0.0008289248736
0.9174642877
0.004050980091
-0.001037019366
0.916629807
0.005074919815
-0.001295732175
0.9155766062
0.006354208425
-0.001617225194
0.9142466911
0.007951697989
-0.002016226523
0.9125659566
0.009945053251
-0.002510346616
0.910439014
0.01242998148
-0.00312025676
0.9077418865
0.01552414034
-0.0038695657
0.9043115081
0.01937238764
-0.004784088601
0.8999312379
0.02415422294
-0.005890401267
0.8943065069
0.03010045664
-0.007209773575
0.8870356438
0.03750375911
-0.008750390031
0.8774667568
0.04682176646
-0.01043023279
0.8647779775
0.05858658154
-0.01208018584
0.8462277158
0.0738224807
-0.0127008615
0.8210881639
0.09451963565
-0.01175804128
0.7629189527
0.1202121193
0.01470765996
0.6448564168
0.1389324141
0.1821728894
0.600085849
0.08830981162
-0.04353924399
0.4732760785
0.1932211329
-0.06641136256