/*--------------------------------*- C++ -*----------------------------------*\
| =========                 |                                                 |
| \\      /  F ield         | OpenFOAM: The Open Source CFD Toolbox           |
|  \\    /   O peration     | Version:  4.1                                   |
|   \\  /    A nd           | Web:      www.OpenFOAM.org                      |
|    \\/     M anipulation  |                                                 |
\*---------------------------------------------------------------------------*/
FoamFile
{
    version     2.0;
    format      ascii;
    class       volVectorField;
    location    "3";
    object      U;
}
// * * * * * * * * * * * * * * * * * * * * * * * * * * * * * * * * * * * * * //

dimensions      [0 1 -1 0 0 0 0];

internalField   nonuniform List<vector> 
24850
(
(1.027274059 0.005804845648 0.01182155738)
(1.029617353 0.01574583185 0.002159715371)
(1.00878687 0.03225766766 -0.01702062756)
(1.003893932 0.03137353265 -0.01945057437)
(1.005661742 0.01646306538 -0.01079031095)
(1.006336519 0.003890787685 -0.002272623111)
(1.004428878 -0.0002834589897 0.0006707927077)
(1.002941941 -0.0009340365293 0.0009885463134)
(1.002209419 -0.000488871156 0.0005083795213)
(1.002018098 0.0001193785227 4.485489811e-05)
(1.001974284 0.0005323467313 -0.0001638127643)
(1.001889688 0.0008621485669 -0.0002641148011)
(1.00173637 0.001174036112 -0.0003471199963)
(1.001516037 0.001502996586 -0.0004415071475)
(1.001231684 0.001891808578 -0.0005565546158)
(1.00087517 0.002373706519 -0.0006990704712)
(1.000425952 0.002976939167 -0.0008769012139)
(0.999857444 0.003732390286 -0.001099245971)
(0.9991371936 0.004677996675 -0.001377344382)
(0.9982237952 0.005861099722 -0.001725146478)
(0.9970641087 0.007340656157 -0.0021600008)
(0.9955899122 0.009189973029 -0.002703496972)
(0.9937132923 0.01150018652 -0.003382473062)
(0.9913194553 0.01438469475 -0.004230389843)
(0.9882600958 0.01798530702 -0.005288206748)
(0.9843239988 0.02247899357 -0.0066099738)
(0.9792830891 0.02809480174 -0.008245909921)
(0.9724936189 0.03511130089 -0.01033890329)
(0.9643375524 0.04389073265 -0.01260763512)
(0.9487256729 0.05564431182 -0.01590672976)
(0.9407613583 0.06883401771 -0.0147349509)
(0.9158173809 0.09575942295 -0.01606870216)
(0.926228888 0.1124414344 -0.01708337767)
(0.9108510456 0.1208584187 -0.01577956127)
(1.015442966 0.00109524041 0.00149473993)
(1.020696839 0.001380842595 -0.0100607555)
(1.035504537 0.006578009906 -0.00804016101)
(1.049130279 0.002180159106 -0.0008093308111)
(1.045492187 -0.002499953743 0.01391475639)
(1.034827238 -0.003998690003 0.02095024138)
(1.02210948 -0.003299774448 0.01639143821)
(1.011848845 -0.001887244615 0.007106802647)
(1.006850451 -0.0008158562666 0.001852295458)
(1.004908421 -0.000153524052 0.0002049287089)
(1.003945152 0.0002999242778 -0.0001250548046)
(1.003361774 0.0006105649804 -0.0001196391705)
(1.003031341 0.0008507801138 -9.448801295e-05)
(1.002818515 0.001134539474 -0.0001017490712)
(1.002658936 0.001475749975 -0.0001311211138)
(1.002499523 0.001875841668 -0.0001707784374)
(1.002313414 0.002361192208 -0.0002179781758)
(1.002086928 0.002964040915 -0.0002750008153)
(1.001803891 0.003718354143 -0.0003453736099)
(1.001445182 0.00466323375 -0.0004328964246)
(1.000987988 0.005846428652 -0.0005419738857)
(1.000403255 0.007327307412 -0.0006780036547)
(0.9996534278 0.00917977907 -0.0008476861741)
(0.9986896868 0.01149568083 -0.00105935067)
(0.9974482041 0.01438908715 -0.001323324249)
(0.9958445888 0.01800171844 -0.001652499944)
(0.993767801 0.02251059321 -0.002062514477)
(0.9910615191 0.02813532315 -0.002573877959)
(0.9875325968 0.03516424715 -0.00320230231)
(0.9827942982 0.04391963215 -0.003981928237)
(0.9766678526 0.05504922387 -0.004758710701)
(0.96735331 0.06877471135 -0.005700851925)
(0.9586698424 0.08791872692 -0.004961772656)
(0.9448323432 0.1123805217 -0.004710686159)
(0.9476905604 0.1357716187 -0.003231022313)
(0.9126732035 0.1594089658 0.0005001847226)
(0.9081368976 0.1855667833 0.001687311749)
(0.881257335 0.216188054 -0.009530295549)
(0.8859240996 0.2431714123 -0.01331941412)
(0.861621351 0.246628447 -0.01535853563)
(1.00756272 0.0004188990716 -0.0005206528025)
(1.016179363 0.0018083415 -0.007810375357)
(1.036636132 0.004251808129 -0.0110966685)
(1.045381298 0.00677871045 0.00354010407)
(1.036785343 0.00984832531 0.02007285067)
(1.024095573 0.01081092255 0.02281828099)
(1.012500043 0.008231730163 0.01486041736)
(1.006420927 0.004609402478 0.00624722137)
(1.004211274 0.002402329549 0.00202514783)
(1.003617941 0.001436918726 0.0006416711898)
(1.003426877 0.001056585722 0.0002421246808)
(1.003271363 0.0009398068318 0.0001024267503)
(1.003138889 0.0009841045521 2.957753086e-05)
(1.003047066 0.001170358819 -1.396039451e-05)
(1.002979541 0.001455993569 -3.955941168e-05)
(1.002908693 0.001823316818 -5.844765161e-05)
(1.002826775 0.002284992057 -7.693098354e-05)
(1.002727832 0.002865856475 -9.806125944e-05)
(1.002602782 0.003596517194 -0.0001234274998)
(1.002441415 0.004514813182 -0.0001543240902)
(1.002231405 0.005668228907 -0.0001922299204)
(1.001956406 0.007116477634 -0.0002389266023)
(1.00159466 0.008934592003 -0.0002965530821)
(1.001117205 0.01121682585 -0.000367703035)
(1.000485336 0.01408171691 -0.000455546201)
(0.9996468715 0.01767859991 -0.0005640773808)
(0.9985319034 0.02219695889 -0.0006977657439)
(0.9970419881 0.02787714593 -0.0008637901484)
(0.9950502497 0.0350388658 -0.001066471012)
(0.9923322871 0.04407787771 -0.001316737881)
(0.9887010305 0.05567759819 -0.001545706989)
(0.9834466455 0.07037760118 -0.001799579708)
(0.9768507804 0.09042108332 -0.00161323546)
(0.9696620826 0.1135729678 -0.001293157175)
(0.9613811391 0.1433758103 -0.0005207353561)
(0.9499776386 0.1749206543 0.0014270177)
(0.9332972883 0.2052483073 0.001439104467)
(0.9132950841 0.2315304093 -0.005308850793)
(0.9001460075 0.2692962082 -0.01010712097)
(0.8855080589 0.2878422602 -0.004042407042)
(0.8469562758 0.3084310687 -0.0002462698135)
(0.8455636641 0.3344460269 -0.005684927324)
(0.833223941 0.3431740018 -0.01078395465)
(1.007071683 -0.0002107909951 -0.0003860114495)
(1.016315967 -0.001822279072 -0.007789615948)
(1.036630519 -0.004170290832 -0.01112849377)
(1.045285966 -0.006511854139 0.003494864831)
(1.036733275 -0.009407722845 0.02001630867)
(1.024120834 -0.01029542153 0.02276337619)
(1.012578347 -0.007650947682 0.01483672933)
(1.006517181 -0.003930213804 0.006251464781)
(1.004316997 -0.001599916174 0.002055091084)
(1.003722907 -0.0004758450102 0.0006762146294)
(1.003542405 0.0001375830948 0.0002650223737)
(1.003415793 0.0005398676708 0.0001318706091)
(1.003337546 0.0008368503084 8.328801937e-05)
(1.003312649 0.001123160848 6.652950789e-05)
(1.003318289 0.001441580334 6.689953865e-05)
(1.003335424 0.001821630478 7.636695368e-05)
(1.003363328 0.002290405947 9.217049776e-05)
(1.003402469 0.002876775647 0.0001140350464)
(1.003451011 0.003613580946 0.000142759645)
(1.003507875 0.004539992254 0.0001798456194)
(1.003572255 0.005704636741 0.0002273412666)
(1.003642385 0.007168679185 0.0002879082906)
(1.003715074 0.009009166905 0.0003649747319)
(1.003785064 0.01132316579 0.0004628928959)
(1.003844032 0.01423313151 0.0005871276556)
(1.003879548 0.01789388316 0.0007444354989)
(1.003873901 0.02250264377 0.0009429426099)
(1.003804861 0.02831103494 0.001191798087)
(1.003644646 0.03565551957 0.001499065073)
(1.003383191 0.04496656788 0.001868972139)
(1.002992917 0.05696442221 0.002268298641)
(1.002646143 0.07241826106 0.002625418043)
(1.001722666 0.09348073727 0.002590041658)
(0.9990971644 0.1191870077 0.001960278615)
(0.9919303331 0.1487269114 0.001241814838)
(0.9829274224 0.1798505355 0.001732084933)
(0.9692766843 0.2119582019 0.002003342422)
(0.9512125886 0.2407126052 -0.0005412671386)
(0.9252443662 0.2773721003 -0.00392140955)
(0.9101957397 0.3082050349 -0.0008258686668)
(0.868326827 0.3400765144 -0.000322574665)
(0.8618899831 0.3664749454 -0.004395892638)
(0.8171451543 0.3747679998 -0.004864743218)
(0.8222793887 0.407576873 0.001289568297)
(0.784026408 0.4026401522 -0.003485584385)
(1.011034131 -0.001255454271 -0.0001784291064)
(1.020520781 -0.001068037452 -0.009860843577)
(1.035404519 -0.006178556822 -0.007681290749)
(1.049066366 -0.001740148669 -0.0004403999846)
(1.045451587 0.002985700226 0.01417400283)
(1.034804695 0.004514362909 0.0211147718)
(1.022156577 0.003869453626 0.01648722207)
(1.01199135 0.002571008459 0.007185902701)
(1.007063806 0.001635938361 0.001947994014)
(1.005190608 0.001151941523 0.0003232898099)
(1.004330166 0.0009489852258 1.590103837e-05)
(1.003866551 0.0009345751108 3.560790169e-05)
(1.00366144 0.001037821081 8.035200983e-05)
(1.003589412 0.001249109961 0.0001185433398)
(1.003621751 0.001544255351 0.0001522391642)
(1.003708898 0.00192521827 0.0001885717846)
(1.003834911 0.00240967931 0.0002339161562)
(1.004000396 0.003022569696 0.0002923465806)
(1.004208866 0.003796308139 0.0003671121247)
(1.004467011 0.004771881186 0.0004621302043)
(1.004784331 0.006000992445 0.0005825136691)
(1.005172198 0.007549162454 0.0007348265785)
(1.005643883 0.009499389586 0.0009274076127)
(1.006214793 0.0119567125 0.001170784332)
(1.006902617 0.0150542356 0.00147814858)
(1.007728101 0.01896103359 0.001865886131)
(1.008715653 0.02389341914 0.002353748716)
(1.009902714 0.0301279873 0.002965316718)
(1.011335788 0.0380339244 0.00372005692)
(1.013180958 0.04807314194 0.004634519561)
(1.015525195 0.06103287912 0.005592326421)
(1.019466959 0.0777623892 0.006400619168)
(1.022980989 0.1013457478 0.005572377301)
(1.023057779 0.1322516347 0.003409694713)
(1.017798942 0.1668362053 0.001039432631)
(1.00892891 0.2030363685 -0.0003150358298)
(0.9992624696 0.2386076761 -0.0008248307627)
(0.9862292936 0.2784937282 -0.00201142202)
(0.9622615691 0.3189273577 -0.003752769772)
(0.9477750947 0.3422426537 -0.002935798808)
(0.9181287285 0.3636570847 -0.003284713672)
(0.8860847539 0.3927337853 -0.005180128797)
(0.858249214 0.4130756146 -0.004081600442)
(0.8145722709 0.4392669092 -0.0001104107617)
(0.8104223396 0.4539518895 -0.0006959023597)
(0.7526728931 0.4463594208 0.007695282257)
(1.02693931 -0.005830380293 0.01174703485)
(1.029387648 -0.01564889104 0.00218963872)
(1.008811688 -0.03195294022 -0.01698666927)
(1.004037169 -0.03099887988 -0.01940922294)
(1.005952439 -0.01601651271 -0.0107073619)
(1.006699409 -0.003320459601 -0.002125787909)
(1.004827976 0.0009762330451 0.0008825834038)
(1.003448428 0.001727340094 0.001220496974)
(1.002904442 0.001470886316 0.0008009949634)
(1.002872051 0.001127117576 0.0004296781535)
(1.003001333 0.001017505157 0.000313190621)
(1.003183995 0.001071805242 0.0003098522626)
(1.003375663 0.001260907038 0.000370166188)
(1.00358665 0.001553327007 0.0004615083322)
(1.003840621 0.001942580962 0.0005782270388)
(1.004155945 0.002439351245 0.00072556366)
(1.004548374 0.003067426157 0.0009119775691)
(1.005035955 0.003860612513 0.001147797857)
(1.005640918 0.004862265071 0.001445869062)
(1.006390321 0.00612755006 0.001822535697)
(1.007317055 0.007726919209 0.002298625488)
(1.008461142 0.009750527372 0.002900640583)
(1.009871336 0.01231410156 0.003662323088)
(1.011608219 0.01556684152 0.004626666097)
(1.013746652 0.0197027114 0.005848016805)
(1.016394786 0.0249745802 0.007396793829)
(1.019674662 0.03172239157 0.009353623264)
(1.023965351 0.04038217006 0.01184532374)
(1.029386062 0.05164042888 0.01480973349)
(1.03923243 0.06627309069 0.01827253173)
(1.049386465 0.08665422389 0.01839252316)
(1.053170842 0.1137688426 0.01498951998)
(1.046276205 0.1458363157 0.01072745724)
(1.035997927 0.1830944179 0.01006410672)
(1.020662577 0.2199600586 0.007967967932)
(1.034039078 0.2594708724 -0.001994246597)
(0.9763167108 0.3136910834 -0.003412444875)
(0.9621184567 0.3642898901 -0.001370496836)
(0.9449167911 0.3975798132 0.001740182142)
(0.9215058214 0.4263271421 0.0006819973292)
(0.8957227515 0.4456001445 0.0007543026037)
(0.8410241234 0.4706368332 -0.001054522201)
(0.8279430172 0.489244103 -0.002869960312)
(0.7554052009 0.4874119051 0.004596773372)
(0.7705939397 0.5301318873 0.00374475641)
(0.6828568613 0.4880327743 -0.007641143589)
(0.9956033202 0.3423353487 0.01569730414)
(0.9670676072 0.3589621831 0.004233903491)
(0.9418881969 0.4102482205 8.500439591e-05)
(0.9242378913 0.4542779103 0.001169055417)
(0.9090017243 0.4860718699 0.003561329538)
(0.8823763863 0.5086942601 0.00112221804)
(0.8508792514 0.5251437519 -0.001748792017)
(0.7945274086 0.5367877249 0.001404818603)
(0.74682848 0.5487101122 -0.001025348209)
(0.7488276623 0.5728391168 -0.005106523003)
(0.6266113242 0.503778984 0.00269200131)
(0.9661001797 0.4341636009 0.01853309482)
(0.9374435957 0.4500120215 0.00487757907)
(0.9023344775 0.5005362667 -0.00179658301)
(0.883019716 0.5425067424 -0.002233768354)
(0.8594270556 0.5728938346 -0.001479345944)
(0.828262867 0.5838740067 0.0005825310902)
(0.7737558505 0.5938565177 -0.002811430216)
(0.7276304655 0.5958963785 -0.006463422045)
(0.7122099493 0.6131090004 0.001125858394)
(0.5994338343 0.5421360407 0.002674844165)
(0.9153293601 0.5246231556 0.01150894257)
(0.8856922904 0.5382354465 -0.001711091075)
(0.8530842707 0.5930350767 -0.007124278575)
(0.8394274865 0.6315654238 -0.003221881885)
(0.8105946754 0.6408843351 -0.00270196659)
(0.7573896816 0.6469069077 -0.003741116209)
(0.6973891221 0.6436360624 -0.0003934694578)
(0.6693238059 0.6530910378 0.0007181225264)
(0.5662509259 0.5871853949 -0.002172979099)
(0.8313637578 0.6048702463 0.004464960412)
(0.8033025218 0.637602853 -0.0001603353615)
(0.7916469112 0.6879260717 -0.003294688131)
(0.7657539346 0.7071543557 -0.00317604265)
(0.7205266152 0.7101659432 -0.003006321703)
(0.6585567999 0.6968216085 -0.003486896332)
(0.6169122774 0.6932583163 -0.006005144847)
(0.5317899906 0.6395037925 -0.007314930238)
(0.7961859901 0.6610928984 0.01050853493)
(0.7677765821 0.6764411762 -0.0009388534755)
(0.7360762654 0.7313824821 -0.006831143136)
(0.7183654097 0.7764351382 -0.007378503403)
(0.6788908956 0.7773051944 -0.006948770019)
(0.6257117115 0.766396329 -0.006717451117)
(0.5665103212 0.740976268 -0.01033224394)
(0.5226061903 0.7297933841 -0.009735938188)
(0.7185098023 0.7412419823 0.0009221076646)
(0.6987006604 0.794331327 -0.009143901717)
(0.671672176 0.8226242389 -0.01088764584)
(0.6292760107 0.8339102495 -0.008029981138)
(0.5867195185 0.834160948 -0.006956430784)
(0.5155331974 0.7870755417 -0.007985909225)
(0.5094858624 0.8239422953 -0.004119155979)
(0.7093741817 0.8674515693 0.008061004522)
(0.6694001819 0.8877527461 -0.007000672115)
(0.636027475 0.8914918407 -0.008138724361)
(0.5919297585 0.9028118588 -0.00634875552)
(0.5529623363 0.9012315985 -0.00565958478)
(0.5157549595 0.8561672272 -0.01382656316)
(0.6693062472 0.8766011608 0.002033324062)
(0.6405293211 0.917848811 -0.01090851649)
(0.6212584604 0.9618211713 -0.01230175618)
(0.5922429257 0.9648986867 -0.009278245367)
(0.551631178 0.9614097246 -0.005189382677)
(0.5165338353 0.9477572925 -0.009863088077)
(0.4795891874 0.921384754 -0.009514448234)
(0.6232689857 0.922910926 0.001498906985)
(0.6026386917 0.978933643 -0.008633512962)
(0.5796147944 1.015408143 -0.009945533397)
(0.5449716197 1.008802182 -0.005346548897)
(0.5174787733 1.012147289 -0.002622779597)
(0.461382834 0.9529734811 -0.001040896379)
(0.4579931389 0.9795004656 -0.0001019106566)
(0.6000752748 1.042237668 0.01046216401)
(0.5694526313 1.067799935 -0.003795245416)
(0.5430993646 1.063655591 -0.005545769701)
(0.5143638585 1.069896836 -0.001010919916)
(0.4759606212 1.039995048 0.00297838409)
(0.4502179383 0.9786454648 -0.007579184086)
(0.5841938644 1.07889909 -0.006226646719)
(0.5392385959 1.090667762 -0.01586228654)
(0.5212417188 1.106565913 -0.01315962364)
(0.496618972 1.103887792 -0.004682777373)
(0.4596287362 1.073007954 0.00627451523)
(0.4236471065 1.032474478 0.004659258646)
(0.3894249195 1.009665183 0.01356261214)
(0.5292739207 1.141404987 0.003711188133)
(0.5024394612 1.149698469 -0.008724804634)
(0.4826918256 1.143456158 -0.004977548938)
(0.4469665739 1.113038335 0.005069906151)
(0.4192903056 1.100137626 0.01032086762)
(0.375930477 1.034288727 0.00579711169)
(0.5034720825 1.169826889 -0.01993192722)
(0.4530233696 1.162864545 -0.02246710949)
(0.4379254977 1.172651457 -0.01026400926)
(0.4185602787 1.154237 -0.001393715546)
(0.4029511341 1.124743153 0.01242895105)
(0.3824989122 1.069299969 -0.0005895832913)
(0.4379854455 1.2013602 -0.004249207277)
(0.4199553283 1.202025948 -0.007353587768)
(0.3935120105 1.181295956 -0.00382209048)
(0.3651318957 1.153225821 0.01104796122)
(0.3290465992 1.096128223 0.01112263113)
(0.3019039588 1.077664747 0.0226130483)
(0.4116667332 1.219823449 -0.02574651393)
(0.3645997253 1.205021807 -0.02380908348)
(0.3516713406 1.205987797 -0.007233851142)
(0.3375120139 1.17898295 0.005358277351)
(0.310325543 1.143416955 0.01571501725)
(0.2763102729 1.074080375 0.01615035344)
(0.3426769662 1.236674349 -0.009302666771)
(0.3226401614 1.220330136 -0.00814769568)
(0.3039658788 1.202323643 0.0001408864492)
(0.2875236546 1.168284852 0.02043403775)
(0.2568820951 1.079627206 0.01354198867)
(0.3200358749 1.273362945 -0.01450464658)
(0.2785625005 1.233503554 -0.01470392146)
(0.2645577974 1.217463693 -0.004708107892)
(0.2617090244 1.181425006 0.02056840861)
(0.2524019097 1.131782866 0.003726712951)
(0.2854574848 1.277294537 -0.01827489228)
(0.2359367513 1.243757457 -0.02101076972)
(0.2237542749 1.22652105 -0.007681332933)
(0.2143035131 1.191534023 0.01566639997)
(0.1872528821 1.142094853 0.01494859285)
(0.1652016666 1.108409368 0.03383569985)
(0.2426896314 1.276126308 -0.01933572839)
(0.1947127327 1.25478375 -0.02371608095)
(0.1892866412 1.235938721 -0.008378120351)
(0.1742685196 1.210174671 0.008522624709)
(0.1602323924 1.183277342 0.02352038776)
(0.1423166114 1.096686369 0.02961852336)
(0.1899232623 1.276072702 -0.02232924075)
(0.1518490135 1.265600424 -0.02338807774)
(0.1536976294 1.24533757 -0.008443570322)
(0.1401544398 1.224746747 0.002245486804)
(0.1414913782 1.194541936 0.02930489071)
(0.1250612977 1.111426442 0.02703962085)
(0.1381989806 1.275800804 -0.02570976044)
(0.1146946568 1.269700954 -0.02055807804)
(0.1209046918 1.250351857 -0.007509351188)
(0.1125170108 1.231175042 -0.0006975179756)
(0.1196293476 1.204662009 0.03226143592)
(0.1073628211 1.141582564 0.02684759708)
(0.09721812547 1.27074479 -0.02590390502)
(0.08217294249 1.265965813 -0.01608577425)
(0.09001679507 1.250799861 -0.005714708005)
(0.0853824299 1.234469165 -8.383807798e-05)
(0.09176609186 1.215134533 0.02725441937)
(0.08771301527 1.17589848 0.02682702502)
(0.06974689412 1.265999024 -0.02113403338)
(0.06195621012 1.261070581 -0.01164202655)
(0.06725284974 1.24966765 -0.003717664179)
(0.064356783 1.236727515 0.001543029982)
(0.06799185525 1.223396924 0.01693306679)
(0.06775058738 1.203392903 0.02090102386)
(0.0521674453 1.264232175 -0.01632476175)
(0.04991318616 1.258552049 -0.008731163554)
(0.05209337458 1.249086725 -0.002315850954)
(0.04993071644 1.238901221 0.002262195134)
(0.05187849576 1.228699763 0.008939810549)
(0.05178662598 1.217220992 0.01463120719)
(0.04055017561 1.263548818 -0.01294510475)
(0.04098172897 1.257179392 -0.006932256778)
(0.04115472357 1.249003548 -0.001541802259)
(0.03953183439 1.240699303 0.002029934278)
(0.04067897832 1.232336765 0.005029412507)
(0.03954134963 1.223531 0.01054346281)
(0.03197930944 1.262128726 -0.01025117419)
(0.03330673213 1.255764063 -0.005496796505)
(0.0325227123 1.248987867 -0.001100246814)
(0.03141427365 1.242137445 0.001439858464)
(0.03221546258 1.235311187 0.003688839108)
(0.03041183538 1.227317301 0.008079087525)
(0.02519528562 1.259938132 -0.007896768244)
(0.02674288494 1.254276045 -0.004230601162)
(0.02564769343 1.248904278 -0.000797596134)
(0.02496126291 1.243312921 0.0009508348237)
(0.02565757382 1.237841594 0.0032452181)
(0.02369205501 1.230732252 0.006376317348)
(0.01984302481 1.257596143 -0.006008700996)
(0.02134789559 1.252957615 -0.003227804852)
(0.0202644143 1.248769654 -0.0005844508364)
(0.01986452876 1.24425076 0.0006604947075)
(0.02052065586 1.239914049 0.002838672979)
(0.01870966005 1.233966988 0.005079257551)
(0.01567091713 1.25550643 -0.004620345235)
(0.01701253014 1.251879912 -0.002501811975)
(0.01605999907 1.248616957 -0.0004431394984)
(0.01582649222 1.244973105 0.0004917028624)
(0.01642799979 1.241548749 0.002344083236)
(0.01490289546 1.236701057 0.004067930687)
(0.01240612599 1.253770555 -0.003606932042)
(0.01355055173 1.25101127 -0.001973003283)
(0.01275253128 1.248462551 -0.0003471338598)
(0.01260673786 1.245522028 0.0003762576983)
(0.0131391185 1.242819184 0.001869936866)
(0.01188990816 1.238855402 0.003260009314)
(0.009832930099 1.252368457 -0.002838822855)
(0.01078989696 1.250309909 -0.00156709709)
(0.01013345655 1.248312769 -0.0002750940556)
(0.01004020563 1.245937666 0.0002885848918)
(0.01050231699 1.243805854 0.001482111757)
(0.009477144092 1.24052573 0.002606907817)
(0.007800918139 1.251249455 -0.002239460343)
(0.008592492646 1.249743746 -0.001245238637)
(0.008059681475 1.248167829 -0.0002174316249)
(0.007997068715 1.246253787 0.0002218952837)
(0.008390322402 1.244575796 0.001179499114)
(0.007552011662 1.241826945 0.002080910975)
(0.006192978494 1.25035614 -0.001767168031)
(0.006839250313 1.24928683 -0.0009881662926)
(0.006413376014 1.248047385 -0.0001676842311)
(0.006373297202 1.246496546 0.0001738203351)
(0.006702179808 1.245178024 0.0009425465211)
(0.006021383337 1.242846675 0.001660208357)
(0.004917815245 1.249641379 -0.001395056413)
(0.005436891984 1.248919754 -0.0007834364412)
(0.005098013375 1.247946278 -0.000126695716)
(0.005084601584 1.246702116 0.0001397560678)
(0.005357591634 1.245649381 0.000755610121)
(0.004803710627 1.243649254 0.001325896837)
(0.003908019832 1.249070671 -0.001103566365)
(0.00432381502 1.248626296 -0.0006224176304)
(0.004053238912 1.247865208 -9.744573417e-05)
(0.004053120914 1.246865684 0.0001116440008)
(0.004277712293 1.246021682 0.0006055424395)
(0.003829892063 1.244284883 0.001059713789)
(0.003107465787 1.248614175 -0.0008753071233)
(0.003441895321 1.24839056 -0.0004958995884)
(0.003225709852 1.247794678 -7.71618372e-05)
(0.003228069663 1.246991429 8.782883811e-05)
(0.003410364071 1.246314112 0.0004844298083)
(0.003050760631 1.244788452 0.0008469603313)
(0.002470773927 1.248247065 -0.000695337378)
(0.002741219697 1.248200281 -0.0003955012713)
(0.002569291223 1.247732524 -6.200978013e-05)
(0.002570421569 1.24708633 6.882868277e-05)
(0.002717569543 1.246542685 0.0003871321049)
(0.002429432816 1.245187088 0.0006766650971)
(0.001964134343 1.247950936 -0.0005525908245)
(0.00218373572 1.248046676 -0.0003151587688)
(0.002047575196 1.247679653 -4.999779798e-05)
(0.002047357912 1.247159873 5.4054507e-05)
(0.002166015698 1.246722261 0.0003091617973)
(0.001934848134 1.245503947 0.0005402438881)
(0.001561643202 1.247711914 -0.0004391968378)
(0.001740155357 1.247922647 -0.0002507812017)
(0.001632333511 1.247635833 -4.035034203e-05)
(0.001631421505 1.247218625 4.247576651e-05)
(0.001726988394 1.246864537 0.0002466161556)
(0.001541239252 1.245757156 0.0004309721103)
(0.001242260659 1.247519076 -0.000349199135)
(0.001386979108 1.247822313 -0.0001993500417)
(0.001301380687 1.247599845 -3.257762871e-05)
(0.001300344928 1.247266041 3.338313246e-05)
(0.001377224896 1.246977813 0.0001964648719)
(0.001228017528 1.245959896 0.0003436260142)
(0.000988653906 1.247363779 -0.0002778154231)
(0.001105494641 1.247741198 -0.0001584615786)
(0.001037424512 1.247570525 -2.629798471e-05)
(0.001036521744 1.247304183 2.629640581e-05)
(0.001098359208 1.247068082 0.0001563824862)
(0.0009787386508 1.246122006 0.0002739929832)
(0.0007874089452 1.247239636 -0.000221273307)
(0.0008809816624 1.247676042 -0.0001260723936)
(0.0008265812992 1.247546904 -2.127238878e-05)
(0.0008259526819 1.247334725 2.073633096e-05)
(0.0008756555522 1.247140006 0.0001244363169)
(0.0007801434842 1.246251218 0.0002185213122)
(0.000626655287 1.247140501 -0.0001763272292)
(0.0007021036192 1.247624158 -0.0001006151204)
(0.0006587829953 1.247528284 -1.739290253e-05)
(0.000657917766 1.247359177 1.627425686e-05)
(0.0006979337829 1.247197149 9.903476441e-05)
(0.000621670049 1.246353867 0.0001743605485)
(0.0004996441048 1.247063123 -0.0001410067166)
(0.0005591768768 1.247583235 -8.054096972e-05)
(0.0005238737905 1.247513792 -1.458737276e-05)
(0.0005233668692 1.247378856 1.246532253e-05)
(0.0005552506916 1.247242663 7.875222983e-05)
(0.0004950389535 1.246434973 0.0001391606064)
(0.0003965611625 1.247001724 -0.0001129344255)
(0.0004459386453 1.247551583 -6.514267566e-05)
(0.0004179723772 1.247503203 -1.287765799e-05)
(0.0004157919616 1.247394829 9.086780781e-06)
(0.0004412353948 1.247278773 6.262144004e-05)
(0.0003931638073 1.246499004 0.0001112784313)
(0.0003151800328 1.246955421 -9.157040157e-05)
(0.0003544030347 1.247526557 -5.318194995e-05)
(0.0003315902509 1.247495274 -1.232106447e-05)
(0.0003290639951 1.247408094 5.854087776e-06)
(0.0003491037552 1.247307836 4.964477931e-05)
(0.0003114147407 1.246549224 8.954018842e-05)
(0.0002487264801 1.24691977 -7.555224107e-05)
(0.0002838470403 1.247508641 -4.453907806e-05)
(0.0002638818615 1.247489914 -1.28209139e-05)
(0.000259184627 1.247418853 2.406597049e-06)
(0.0002731439019 1.247331889 3.898725448e-05)
(0.0002451566118 1.246589325 7.266600322e-05)
(0.0001935705987 1.246891994 -6.363053397e-05)
(0.0002226955365 1.247494007 -3.772987502e-05)
(0.0002110403876 1.247485311 -1.435802233e-05)
(0.0002032273742 1.247427648 -1.326688361e-06)
(0.0002147169134 1.247350772 3.057197777e-05)
(0.000191198521 1.246623312 5.967688933e-05)
(0.0001475307765 1.246870168 -5.566877934e-05)
(0.0001796678358 1.247486843 -3.366761204e-05)
(0.0001677570127 1.247480781 -1.572685075e-05)
(0.0001580950115 1.24743135 -4.980875332e-06)
(0.000163691336 1.247370609 2.250637704e-05)
(0.00014918467 1.246655077 4.917823342e-05)
(0.0001123687177 1.246858388 -4.941271654e-05)
(0.000136148933 1.247483874 -3.040003543e-05)
(0.0001325115449 1.247477161 -1.559997368e-05)
(0.0001275870452 1.247445316 -5.612660968e-06)
(0.0001349421852 1.247387971 1.673268522e-05)
(0.0001206747968 1.246684818 4.116253047e-05)
(7.884628241e-05 1.246850019 -4.282952592e-05)
(0.0001033044513 1.247492246 -2.936937281e-05)
(0.0001005459884 1.247496084 -1.514268755e-05)
(0.0001088111128 1.247465762 -6.503225631e-06)
(0.0001152738979 1.247414826 9.431060133e-06)
(0.0001010734895 1.246718974 3.330273175e-05)
(5.817753594e-05 1.246865611 -3.879112649e-05)
(7.843105462e-05 1.247513816 -3.155004617e-05)
(7.556853231e-05 1.247525748 -1.956462006e-05)
(9.547075476e-05 1.247501511 -1.318439674e-05)
(0.0001000319174 1.247455268 -1.073822982e-06)
(8.688517188e-05 1.246764609 2.557938989e-05)
(4.167522768e-05 1.246893495 -3.830467608e-05)
(5.503386521e-05 1.247556959 -4.008048836e-05)
(5.311978811e-05 1.247561773 -3.401257522e-05)
(8.803640747e-05 1.247544342 -2.991809687e-05)
(9.084079176e-05 1.247514843 -1.827880312e-05)
(8.412855189e-05 1.246815513 1.344945148e-05)
(5.640426897e-05 1.247020397 -4.892465735e-05)
(2.838819417e-05 1.247646396 -5.434687913e-05)
(2.686248564e-05 1.24763436 -5.750947896e-05)
(8.913860423e-05 1.247625042 -5.481406473e-05)
(9.020486629e-05 1.24761747 -3.99055524e-05)
(4.951466427e-05 1.246969169 -1.055433574e-05)
(-0.0001188101584 1.247051484 -2.849175714e-05)
(-4.86961216e-05 1.247801746 -0.0001342586122)
(-4.184228615e-05 1.247678712 -0.0001178086155)
(0.0001364353847 1.247675499 -0.0001157726637)
(0.0001436290708 1.247780878 -0.0001234837506)
(0.0002074665935 1.247020606 -4.366426502e-06)
(0.0003499871982 1.248179678 -0.0003029327417)
(-0.0001104316673 1.248129388 -0.0001292479895)
(-8.441450924e-05 1.247971785 -0.0002046349842)
(0.0001577353753 1.247970213 -0.0002018793501)
(0.000185819384 1.248116851 -0.0001172501755)
(-0.0002738533656 1.248155434 -0.0002905561253)
(-0.001374465588 1.246981924 -0.00112757097)
(-0.001020515371 1.248273084 -0.000952275601)
(-0.0004878993758 1.247841125 -0.0004589151952)
(0.0005390141416 1.247826082 -0.0004664653111)
(0.001069256339 1.248247685 -0.0009342938663)
(0.001430404829 1.246963462 -0.001116207205)
(3.92100013e-06 1.263520211 0.0007593787188)
(-0.0001358899309 1.249833138 0.0002131208622)
(-0.0004795035019 1.248443208 -0.001221091673)
(0.0004989852644 1.24843597 -0.001207146997)
(0.0001832832564 1.249824322 0.0002086643772)
(5.365902282e-05 1.263481063 0.0007758135206)
(-0.003846046292 1.229755167 -0.01771475554)
(-0.007407525596 1.247452576 -0.004141357341)
(0.0003863112226 1.249033632 0.0001142383234)
(-0.0003730630373 1.249029225 0.0001148242345)
(0.007428859007 1.247246144 -0.004114731942)
(0.00392212606 1.229762144 -0.01770629824)
(-0.004984101724 1.240569797 -0.008884127772)
(-0.0004113759572 1.244891224 -0.004306354674)
(0.0002518701306 1.244993263 -0.00430104448)
(0.004989684106 1.24051769 -0.008759596477)
(-0.005829305319 1.240004706 -0.004491120368)
(-0.0001057049509 1.235200874 -0.003102778073)
(0.001414423858 1.235882073 -0.003609846746)
(0.003232199071 1.238462228 -0.00670163158)
(1.027894352 0.007146939357 -0.007628530506)
(1.042401458 0.005986837643 -0.01228058919)
(1.040013814 0.004940961626 -0.01638719327)
(1.030455084 0.005974369585 -0.01133109928)
(1.01969805 0.005641989796 -0.003039298764)
(1.01019584 0.003403553173 0.000812713501)
(1.004276758 0.001345815729 0.0009280509782)
(1.002329357 0.0004506725435 0.0003185425315)
(1.001888296 0.0002591635738 -1.734228771e-05)
(1.001735743 0.0003560266059 -0.000209772224)
(1.001615958 0.0005498590093 -0.0003422555479)
(1.001440376 0.0007496696211 -0.0004426830421)
(1.001168101 0.0009594148705 -0.000550676419)
(1.000795208 0.001205105211 -0.0006881826794)
(1.000316798 0.001508629136 -0.000863080365)
(0.99971269 0.001888375663 -0.001081993408)
(0.9989508625 0.00236356251 -0.001354988433)
(0.9979909511 0.002957415781 -0.001695433363)
(0.9967825755 0.003698798845 -0.002119945725)
(0.995262021 0.00462343068 -0.002648966723)
(0.993348776 0.005775387561 -0.003307629672)
(0.9909411244 0.007208940407 -0.004126808252)
(0.9879101673 0.00899077979 -0.005144372353)
(0.9840917249 0.01120282571 -0.006406285785)