/*--------------------------------*- C++ -*----------------------------------*\
| =========                 |                                                 |
| \\      /  F ield         | OpenFOAM: The Open Source CFD Toolbox           |
|  \\    /   O peration     | Version:  4.1                                   |
|   \\  /    A nd           | Web:      www.OpenFOAM.org                      |
|    \\/     M anipulation  |                                                 |
\*---------------------------------------------------------------------------*/
FoamFile
{
    version     2.0;
    format      ascii;
    class       volScalarField;
    location    "5";
    object      ccx;
}
// * * * * * * * * * * * * * * * * * * * * * * * * * * * * * * * * * * * * * //

dimensions      [0 1 0 0 0 0 0];

internalField   nonuniform List<scalar> 
24850
(
2.468617845
3.504890032
4.49857473
5.498953954
6.499549504
7.499790832
8.499893752
9.499941738
10.49996636
11.49998003
12.49998803
13.49999282
14.49999572
15.49999746
16.49999851
17.49999913
18.4999995
19.49999971
20.49999982
21.49999986
22.49999986
23.49999987
24.50000006
25.50000097
26.50000367
27.50000964
28.50001976
29.50003444
30.50006536
31.50025894
32.49984217
33.49796845
34.48226569
35.39908597
0.2211005421
1.450741591
2.459201249
3.495559565
4.496523536
5.498278728
6.499230373
7.499624479
8.499800056
9.499886709
10.49993349
11.4999603
12.49997618
13.49998573
14.4999915
15.49999497
16.49999705
17.49999829
18.49999902
19.49999945
20.49999971
21.49999987
22.5
23.50000015
24.50000047
25.50000125
26.50000312
27.50000711
28.50001495
29.50003091
30.50007196
31.50020292
32.50001009
33.49895723
34.49313232
35.52010626
36.5329629
37.51024001
38.49004331
39.40851747
0.2116310936
1.457681363
2.481002067
3.489513816
4.495207246
5.497894213
6.499052351
7.499532812
8.499748993
9.499856873
10.49991568
11.4999496
12.49996976
13.49998189
14.49998921
15.49999362
16.49999626
17.49999783
18.49999875
19.49999929
20.49999959
21.49999977
22.49999986
23.49999994
24.50000012
25.50000065
26.50000189
27.50000399
28.50000581
29.50000389
30.49999544
31.50000373
32.49984952
33.49954219
34.49891406
35.49759603
36.4986585
37.49966423
38.49525547
39.5240412
40.53559859
41.49886811
42.41063637
0.2124516171
1.457873066
2.481040073
3.489525238
4.49521263
5.497897307
6.499054018
7.499533601
8.499749319
9.499856992
10.49991572
11.49994961
12.49996977
13.49998189
14.49998921
15.49999362
16.49999625
17.49999782
18.49999874
19.49999926
20.49999955
21.49999967
22.49999969
23.4999996
24.49999942
25.49999907
26.4999981
27.49999463
28.49998291
29.49994932
30.49986799
31.49969653
32.4995068
33.4992613
34.49903425
35.49861892
36.49927686
37.50020019
38.50027524
39.49934128
40.50050703
41.49502426
42.5228276
43.51959232
44.41484708
0.210116747
1.450947256
2.459222506
3.495574952
4.496534971
5.49828611
6.499234386
7.49962634
8.499800803
9.499886972
10.49993357
11.49996032
12.49997619
13.49998574
14.4999915
15.49999497
16.49999704
17.49999827
18.49999899
19.4999994
20.4999996
21.49999967
22.49999961
23.49999939
24.49999885
25.49999752
26.49999393
27.49998379
28.49995597
29.49988504
30.4997188
31.49935359
32.49912009
33.49871897
34.49821866
35.49778556
36.49863082
37.50017994
38.50181647
39.50069003
40.50159829
41.50123526
42.50019613
43.49390008
44.50943835
45.45223045
2.468583077
3.504896458
4.498585329
5.49896187
6.499553892
7.499792809
8.4998945
9.49994198
10.49996643
11.49998005
12.49998804
13.49999283
14.49999572
15.49999746
16.49999851
17.49999913
18.49999948
19.49999967
20.49999975
21.49999976
22.49999972
23.49999965
24.4999995
25.4999987
26.49999467
27.49997898
28.49992915
29.49979551
30.49948254
31.49876003
32.49809269
33.4970561
34.4956732
35.4936249
36.48595857
37.46331484
38.47857532
39.50836429
40.50347005
41.50208435
42.50140745
43.50135318
44.49759283
45.52658662
46.53205435
47.42493563
38.58220283
39.48458179
40.4844146
41.51048003
42.50315828
43.50176718
44.5021462
45.50190406
46.49840842
47.51279496
48.4484372
40.58841234
41.48631427
42.48427524
43.50842689
44.50235347
45.50177414
46.50266094
47.49821797
48.51383699
49.45550206
42.58415819
43.47993833
44.47994484
45.50645216
46.50137643
47.50202436
48.49854337
49.51673589
50.45923679
44.55620744
45.49332852
46.50540567
47.50065163
48.50206451
49.499531
50.51829761
51.45944988
45.58178595
46.46912399
47.47155185
48.50383741
49.50288112
50.50028513
51.51759995
52.45309305
47.52632494
48.4789107
49.50412379
50.50379153
51.49991981
52.50678806
53.41969072
48.5591899
49.51620403
50.50319443
51.50388658
52.49245618
53.45124901
48.59633407
49.50386072
50.50792021
51.50308613
52.5033507
53.5273928
54.46908984
49.55029641
50.48650439
51.50510108
52.50434835
53.50107184
54.50715257
55.41280259
50.56630491
51.51783472
52.50325123
53.50395637
54.48965103
55.43839351
50.5916572
51.50110312
52.50607872
53.5028566
54.50023372
55.50576269
56.41124203
51.57329728
52.51797538
53.50163083
54.502113
55.48050277
56.4186717
51.59024827
52.49598381
53.50299245
54.50105146
55.49258758
56.45204133
52.56008428
53.51115782
54.49965402
55.49918348
56.50997649
57.41861533
52.56440547
53.4823303
54.50007961
55.50010861
56.47653857
57.41257358
53.54053495
54.50651377
55.50030698
56.48427972
57.43266435
53.5639597
54.51539001
55.50071239
56.49290452
57.45414713
53.57933943
54.52259213
55.50117216
56.498583
57.5045998
58.40124616
53.59166063
54.52752477
55.50153821
56.49849973
57.46525637
58.38374161
53.60147607
54.5311065
55.50207222
56.4970965
57.46490246
58.38849676
53.60712446
54.53343084
55.5023974
56.49625861
57.46453895
58.38980698
53.60892454
54.53435698
55.50242216
56.49568556
57.46404227
58.39027158
53.60901389
54.53451903
55.50229265
56.495317
57.46356571
58.38983004
53.60898753
54.53451362
55.50217478
56.49510783
57.46333054
58.38966588
53.60892472
54.53445161
55.5020675
56.4949769
57.46321493
58.38961154
53.60887027
54.5343919
55.5019907
56.49489853
57.46315674
58.38959544
53.60883936
54.53435818
55.50195218
56.49486198
57.46313154
58.38959178
53.60883619
54.5343612
55.50195908
56.49486952
57.4631383
58.38960038
53.60886885
54.53441799
55.50203233
56.49494193
57.46319485
58.38963559
53.60895419
54.53455725
55.50220849
56.49511624
57.46333254
58.38971998
53.6091103
54.53480746
55.50252325
56.49542833
57.46358136
58.38987457
53.60934036
54.53517285
55.5029821
56.49588357
57.46394596
58.39010352
53.60961939
54.53561471
55.50355164
56.49645096
57.46438739
58.39038197
53.60989877
54.53605747
55.50412035
56.49702149
57.46482974
58.39066114
53.61013011
54.53642578
55.50457973
56.49748404
57.46519767
58.3908925
53.61028924
54.53668178
55.50490006
56.49780642
57.46545345
58.39105176
53.6103807
54.53683127
55.50508827
56.49799579
57.46560285
58.39114335
53.61042496
54.53690518
55.50518213
56.49809018
57.46567676
58.39118772
53.61044318
54.53693645
55.50522226
56.49813052
57.46570804
58.39120602
53.61044963
54.53694787
55.50523709
56.49814543
57.46571948
58.39121251
53.61045152
54.53695131
55.50524162
56.49814997
57.46572293
58.39121441
53.61045152
54.53695131
55.50524162
56.49814997
57.46572292
58.3912144
53.61044965
54.53694788
55.50523709
56.49814541
57.46571946
58.39121248
53.61044322
54.53693647
55.50522225
56.49813049
57.46570799
58.39120597
53.61042503
54.53690522
55.50518212
56.49809012
57.46567666
58.39118762
53.61038082
54.53683133
55.50508825
56.49799566
57.46560267
58.39114316
53.61028945
54.53668189
55.50490001
56.49780619
57.46545311
58.39105142
53.61013046
54.53642595
55.50457963
56.49748362
57.46519708
58.39089192
53.6098993
54.53605772
55.50412016
56.49702079
57.46482877
58.39066021
53.60962009
54.53561495
55.50355125
56.49644985
57.46438594
58.39038061
53.60934101
54.53517276
55.50298129
56.49588199
57.46394413
58.39010186
53.60911043
54.53480625
55.50252159
56.49542658
57.46357975
58.38987307
53.60895357
54.53455361
55.50220531
56.49511534
57.46333262
58.38971917
53.60886954
54.53441059
55.50202669
56.49494429
57.46319902
58.38963452
53.6088461
54.5343486
55.50194869
56.49487902
57.46314936
58.38959289
53.60887126
54.53433335
55.50192733
56.49488068
57.46315159
58.38956361
53.609355
54.53466808
55.50203715
56.49478977
57.46283499
58.38909356
53.61228167
54.53663091
55.502208
56.49454015
57.46081033
58.38612605
53.58797908
54.50092343
55.50310066
56.49318908
57.49615755
58.4101872
54.4698536
55.50246821
56.49236634
57.52564586
54.29305469
55.24296149
56.24103709
57.22262004
2.471663407
3.504585262
4.499159174
5.499215591
6.499623662
7.499803552
8.499891067
9.49993695
10.49996251
11.49997742
12.49998637
13.4999918
14.49999511
15.4999971
16.4999983
17.49999901
18.49999944
19.49999969
20.49999984
21.49999993
22.49999998
23.50000004
24.50000023
25.50000084
26.50000246
27.50000586
28.50001246
29.50002928
30.5000921
31.50042074
32.49798012
33.48309027
34.40150997
0.2109386633
1.490119226
2.51799769
3.499350003
4.497382773
5.498364207
6.499138325
7.499521385
8.499724223
9.499837001
10.49990217
11.49994089
12.4999643
13.49997853
14.49998717
15.49999241
16.49999555
17.49999743
18.49999855
19.49999924
20.49999969
21.50000004
22.50000043
23.50000107
24.50000241
25.50000548
26.5000123
27.50002603
28.50005141
29.50009916
30.50020946
31.50060618
32.50014078
33.49703871
34.53012783
35.54327764
36.51225355
37.51508871
38.4993494
39.41608018
0.4636192503
1.489331729
2.511148276
3.492325821
4.494375937
5.49682802
6.498268567
7.499017481
8.499425854
9.499657818
10.49979383
11.4998753
12.49992467
13.4999547
14.49997295
15.49998398
16.49999061
17.49999457
18.49999694
19.49999838
20.49999932
21.50000006
22.50000088
23.50000217
24.50000469
25.50000997
26.50002087
27.50004189
28.50007955
29.50014595
30.50027801
31.50065839
32.50087988
33.50183852
34.50190695
35.53798217
36.55629946
37.52329497
38.50922751
39.54708267
40.54462223
41.51298297
42.42975426
0.4604588486
1.431403247
2.462480739
3.480737212
4.48998686
5.494676465
6.49706248
7.498320748
8.499013357
9.499409981
10.49964394
11.49978454
12.49986985
13.49992174
14.49995327
15.49997232
16.49998377
17.4999906
18.49999468
19.49999713
20.4999987
21.49999988
22.50000109
23.50000282
24.50000582
25.50001144
26.5000221
27.50004197
28.50007867
29.50014827
30.5002888
31.50058207
32.50103514
33.5027071
34.50814829
35.5786255
36.55476661
37.51777544
38.51080308
39.54639918
40.56525528
41.52606456
42.55220855
43.53413607
44.44528369
0.4596514246
1.427181058
2.457810973
3.477448021
4.488096987
5.493622153
6.496469675
7.497978409
8.498810772
9.499288188
10.49957018
11.49973981
12.49984279
13.49990546
14.49994353
15.49996654
16.49998036
17.49998861
18.4999935
19.4999964
20.49999817
21.49999936
22.50000036
23.50000155
24.50000336
25.50000647
26.50001184
27.50002081
28.5000354
29.50006031
30.50010997
31.50022215
32.50043926
33.50119721
34.50329136
35.50755292
36.50770585
37.50754027
38.51177274
39.58480681
40.56224242
41.52320725
42.55043781
43.56338464
44.56532848
45.53790377
46.44597291
0.4597671217
1.42728094
2.457844956
3.477459531
4.48810231
5.493625074
6.496471264
7.497979204
8.498811132
9.499288336
10.49957023
11.49973983
12.49984279
13.49990546
14.49994352
15.49996653
16.49998034
17.49998856
18.49999341
19.49999624
20.49999786
21.49999877
22.49999923
23.49999936
24.49999908
25.49999794
26.49999456
27.49998547
28.49996323
29.49991484
30.49982412
31.4996892
32.49959381
33.49962061
34.49992748
35.50041198
36.50038028
37.50066566
38.50302864
39.50939897
40.51239681
41.51637745
42.58761039
43.56476223
44.55983887
45.5765258
46.55216665
47.49380678
0.4606665335
1.431507714
2.462515685
3.480755344
4.489998236
5.494683502
6.497066433
7.498322723
8.499014239
9.499410339
10.49964407
11.49978459
12.49986986
13.49992174
14.49995325
15.49997229
16.49998372
17.4999905
18.49999447
19.49999674
20.49999795
21.49999844
22.49999835
23.49999752
24.49999538
25.49999033
26.49997835
27.49995013
28.49988596
29.49974914
30.49948201
31.49902757
32.49856844
33.49795838
34.49713345
35.4957756
36.49364662
37.49146347
38.49186102
39.49778259
40.50202795
41.50641601
42.51386248
43.52172097
44.59217696
45.61004222
46.59040111
47.58840934
48.55443993
49.44702191
0.4634187022
1.48938688
2.51115873
3.492337966
4.494386143
5.496835006
6.498272544
7.499019419
8.499426682
9.499658137
10.49979394
11.49987534
12.49992468
13.4999547
14.49997294
15.49998396
16.49999056
17.49999448
18.49999675
19.49999802
20.49999863
21.49999877
22.49999847
23.49999759
24.49999556
25.49999052
26.49997694
27.49994023
28.49984663
29.49962836
30.49916677
31.49823121
32.49716282
33.49562532
34.49351818
35.48980344
36.48078967
37.44012613
38.41450056
39.485504
40.49113877
41.49756068
42.50252082
43.50943532
44.5228632
45.60250988
46.58077693
47.57244004
48.58346476
49.54611115
50.46475891
0.2100582209
1.490153024
2.518020091
3.499366105
4.497391934
5.49836895
6.499140456
7.499522204
8.499724492
9.499837083
10.4999022
11.49994091
12.4999643
13.49997853
14.49998717
15.49999239
16.49999552
17.49999737
18.49999844
19.49999901
20.49999925
21.49999923
22.49999894
23.49999827
24.49999677
25.49999278
26.49998088
27.49994553
28.49984807
29.49960568
30.49906268
31.4978836
32.49642592
33.49423367
34.49104197
35.48549703
36.47304703
37.43422069
38.44553135
39.44282797
40.41782795
41.48626413
42.49071635
43.49789312
44.50579438
45.51725121
46.52760174
47.59843777
48.61153058
49.59357086
50.55397702
51.47538076
0.2195007755
1.217032155
2.471716336
3.504604772
4.499167669
5.499218819
6.499624633
7.499803728
8.49989105
9.499936926
10.4999625
11.49997742
12.49998637
13.4999918
14.4999951
15.4999971
16.49999829
17.49999899
18.49999939
19.4999996
20.49999966
21.4999996
22.49999941
23.49999904
24.4999982
25.49999562
26.49998649
27.49995551
28.49986157
29.49961106
30.49901782
31.4976805
32.49643339
33.49451502
34.49105163
35.48618122
36.47175051
37.44950335
38.44002702
39.44460651
40.45074299
41.44319217
42.41520827
43.48290718
44.48900242
45.49954671
46.51012579
47.52605462
48.60438521
49.61899323
50.60037273
51.55999593
52.47746642
38.56224436
39.47549794
40.44814633
41.44264346
42.44363422
43.43239409
44.40512396
45.48081442
46.49455546
47.50705093
48.52640879
49.60798401
50.623059
51.60316685
52.55852872
53.46688955
40.56097452
41.47294214
42.4350338
43.42085795
44.39440365
45.40667669
46.47494965
47.48611218
48.50407643
49.52707488
50.60997211
51.62396686
52.60094645
53.54567523
54.44453346
42.5400771
43.43768401
44.38281977
45.43134933
46.41693373
47.39303643
48.47887052
49.50426086
50.5286497
51.61062079
52.62177328
53.59212996
54.49877899
44.50844654
45.42340316
46.39799824
47.36724989
48.38607377
49.48401367
50.50832099
51.53155237
52.61209128
53.62879916
54.62532141
55.52938373
45.50300349
46.42183795
47.35609107
48.36286205
49.46777546
50.49356843
51.51423261
52.5411546
53.64916304
54.65749663
55.57744937
56.4608525
46.49197156
47.39758327
48.38302552
49.39564441
50.47595566
51.50056449
52.52582196
53.62502875
54.63954741
55.60096598
56.49115273
47.48446861
48.36647167
49.3772974
50.3900282
51.48484113
52.50909902
53.5344573
54.61503958
55.62286493
56.59999468
57.46641403
48.48461873
49.3703028
50.36974747
51.47130345
52.49638733
53.51623608
54.54023195
55.63888169
56.63076307
57.49808758
48.51927634
49.40902604
50.38489248
51.39392009
52.48373792
53.50478228
54.52661033
55.61889645
56.62571339
57.59183768
58.46121127
49.5208347
50.38629746
51.37479037
52.47071411
53.49434165
54.51467999
55.54201762
56.64529419
57.61588614
58.48396379
49.54626796
50.41612345
51.38326766
52.38868268
53.48072606
54.50536323
55.53403442
56.65145256
57.65103065
58.52480857
50.51058878
51.37156576
52.36138867
53.46371234
54.49467266
55.52345154
56.62491706
57.63272689
58.59495488
59.44041104
50.52356027
51.38206011
52.35769533
53.37374901
54.48034351
55.51125457
56.54328992
57.64365799
58.60432178
59.45673784
51.45354016
52.33555932
53.3435681
54.47061754
55.50497056
56.537735
57.6577655
58.6346322
59.5065255
51.48036668
52.36147544
53.34417467
54.46887301
55.50174452
56.53376294
57.65575068
58.65485731
59.52430371
51.52645729
52.38937973
53.35750734
54.47184251
55.49930142
56.52430595
57.62269507
58.62225921
59.55343908
51.56743676
52.41468212
53.37197761
54.47695577
55.49754934
56.51301218
57.53310958
58.61608686
59.60361386
60.41092163
51.59735126
52.43505483
53.38451049
54.48185764
55.49712604
56.5072478
57.52050238
58.61044187
59.55245235
60.37636758
51.61435039
52.44692025
53.39209201
54.48516712
55.4971691
56.50459434
57.51583061
58.60715251
59.54990368
60.37943157
51.61960383
52.45105325
53.39497078
54.48666516
55.49710524
56.50322653
57.51374114
58.605695
59.54956146
60.38106889
51.62003503
52.45169833
53.39556902
54.48709202
55.49690135
56.50239483
57.51248267
58.60436534
59.54842752
60.38009686
51.62015275
52.4518843
53.39576249
54.48718035
55.49669658
56.50188848
57.51178291
58.60372241
59.54793835
60.37974188
51.62017985
52.45192754
53.3958056
54.48715759
55.49652912
56.50157943
57.51139966
58.60341058
59.54775325
60.37965141
51.6201779
52.45192781
53.39580419
54.48711369
55.49641202
56.5013961
57.51119123
58.60325849
59.54768921
60.37965045
51.62017086
52.45192136
53.39579878
54.48708488
55.49634722
56.50129916
57.51108394
58.60318381
59.54766552
60.37966441
51.62016728
52.45192069
53.39580558
54.48708773
55.49633713
56.50127231
57.51104607
58.60315373
59.54765603
60.37967324
51.62016937
52.45193079
53.39583539
54.48713722
55.49639313
56.50131884
57.51107269
58.60316144
59.54765793
60.37967822
51.62017816
52.45195616
53.39590021
54.48725195
55.49653539
56.50145532
57.51117409
58.60321258
59.5476762
60.37968543
51.62019481
52.45200125
53.39601053
54.48744743
55.49678159
56.50169767
57.51136181
58.60331465
59.54771619
60.37969968
51.6202194
52.45206666
53.3961669
54.48772239
55.49712962
56.50204287
57.51163239
58.60346632
59.54777849
60.37972248
51.62024923
52.45214548
53.39635332
54.48804921
55.497548
56.50245973
57.51195686
58.6036502
59.54785564
60.37975129
51.62027903
52.45222436
53.39654014
54.4883772
55.49796773
56.50287963
57.51228375
58.60383573
59.54793372
60.37978061
51.62030362
52.45229004
53.39669783
54.4886561
55.49832112
56.50323394
57.51256221
58.60399279
59.54799906
60.379805
51.62032046
52.45233582
53.39681077
54.48885934
55.49857917
56.50349272
57.51276528
58.60410543
59.54804473
60.37982177
51.62033018
52.4523629
53.39688012
54.4889873
55.49874255
56.50365656
57.5128932
58.60417465
59.54807178
60.37983147
51.62033501
52.45237676
53.3969172
54.48905776
55.49883317
56.5037474
57.51296366
58.60421167
59.54808564
60.3798363
51.62033715
52.45238308
53.39693481
54.48909224
55.49887783
56.50379215
57.51299813
58.60422924
59.54809196
60.37983844
51.62033802
52.45238571
53.39694234
54.48910733
55.49889751
56.50381187
57.51301322
58.60423672
59.54809458
60.37983929
51.62033832
52.45238664
53.39694504
54.48911281
55.49890467
56.50381902
57.51301867
58.60423936
59.54809549
60.37983959
51.62033833
52.45238665
53.39694508
54.48911282
55.49890466
56.503819
57.51301863
58.6042393
59.54809547
60.37983958
51.62033804
52.45238576
53.39694248
54.48910738
55.4988975
56.50381179
57.51301309
58.60423653
59.5480945
60.37983926
51.6203372
52.45238318
53.39693509
54.48909233
55.49887779
56.50379199
57.51299786
58.60422885
59.54809181
60.37983836
51.6203351
52.45237695
53.3969177
54.48905793
55.49883309
56.50374708
57.51296315
58.60421096
59.54808536
60.37983617
51.62033034
52.45236323
53.39688098
54.48898757
55.49874238
56.50365595
57.51289228
58.6041734
59.54807127
60.37983123
51.62032074
52.4523364
53.39681223
54.48885981
55.49857882
56.50349161
57.51276362
58.60410323
59.5480438
60.37982133
51.62030411
52.45229105
53.39670031
54.4886569
55.49832046
56.5032319
57.5125592
58.60398897
59.54799741
60.3798042
51.6202799
52.45222613
53.39654432
54.48837855
55.49796651
56.50287597
57.5122784
58.60382913
59.54793079
60.37977917
51.62025073
52.45214852
53.39636036
54.48805146
55.49754577
56.50245323
57.51194743
58.6036389
59.54785051
60.37974877
51.6202219
52.45207179
53.39617868
54.48772608
55.49712559
56.50203154
57.51161601
58.60344705
59.54776972
60.37971833
51.62019852
52.45200971
53.39603035
54.48745344
55.49677443
56.50167819
57.51133365
58.60328189
59.54770152
60.37969357
51.62018229
52.45196988
53.39593406
54.48726185
55.49652272
56.50142217
57.51112585
58.60315653
59.54765208
60.37967834
51.62016945
52.45195236
53.39589436
54.48715345
55.49637046
56.50126259
57.51098992
58.60306422
59.54761886
60.37967514
51.62014762
52.45195089
53.39590831
54.48711146
55.49629393
56.50117647
57.51090424
58.60298316
59.54759486
60.3796891
51.62008384
52.45194817
53.39596931
54.48710043
55.49625335
56.50113596
57.51084832
58.60288492
59.5475772
60.37973799
51.62009004
52.4519771
53.39629163
54.48700571
55.49616998
56.50113356
57.51086213
58.60250561
59.54749921
60.37967666
51.62150752
52.45245356
53.39804567
54.48647219
55.49585415
56.50122298
57.51117087
58.60057713
59.54687066
60.37808632
51.61746723
52.44799459
53.41319695
54.48413036
55.49501765
56.50145698
57.51286731
58.58487841
59.55088314
60.38161326
52.482196
53.43505005
54.47856931
55.49350617
56.50173305
57.51666468
58.56085671
59.51485518
60.18304772
52.22453105
53.46930789
54.47373523
55.49201538
56.50189025
57.51813769
58.52143696
59.30638574
60.18156341
2.481026455
3.507536223
4.499450333
5.499238714
6.499607108
7.499780495
8.499871521
9.499922986
10.49995336
11.4999717
12.49998287
13.4999897
14.49999385
15.49999636
16.49999787
17.49999876
18.4999993
19.49999962
20.49999983
21.49999999
22.50000018
23.50000048
24.50000104
25.50000205
26.50000386
27.50000793
28.50002087
29.50006656
30.50021104
31.50010979
32.49475674
33.49038704
34.47252374
35.40659382
0.4618050231
1.459154112
2.497171506
3.494795494
4.495728853
5.497535397
6.498623394
7.499198844
8.499522319
9.499711444
10.49982472
11.49989349
12.49993548
13.49996115
14.49997678
15.49998624
16.49999194
17.49999536
18.49999742
19.4999987
20.4999996
21.50000042
22.50000145
23.50000313
24.50000616
25.50001185
26.50002266
27.50004376
28.50008771
29.50018835
30.50043736
31.50109976
32.50102823
33.50032398
34.53525777
35.59013621
36.56847452
37.53165869
38.51091268
39.49373089
40.39996436
0.4539505986
1.430800404
2.466352428
3.482158419
4.490267046
5.494538931
6.496833298
7.498119647
8.498866778
9.499311535
10.49958052
11.49974467
12.49984519
13.4999067
14.49994419
15.49996692
16.49998062
17.49998883
18.49999379
19.49999689
20.49999906
21.50000104
22.50000353
23.50000755
24.50001484
25.50002858
26.50005476
27.50010489
28.50020221
29.50039817
30.50081495
31.50175068
32.50376517
33.5114957
34.58728514
35.56810532
36.53159684
37.5219793
38.51778039
39.54810973
40.59614565
41.55307813
42.4613909
0.4564755723
1.421750298
2.453217808
3.473602655
4.484883421
5.491214177
6.494801052
7.496877796
8.498106151
9.498845078
10.49929474
11.49957014
12.49973914
13.49984268
14.49990585
15.49994417
16.49996726
17.4999811
18.49998943
19.49999458
20.49999811
21.50000116
22.50000484
23.50001059
24.50002077
25.50003961
26.50007477
27.50014037
28.50026312
29.50049701
30.50095865
31.5019084
32.50381078
33.50881068
34.51912858
35.52623147
36.52667202
37.52303811
38.52706703
39.60170378
40.58086151
41.53847168
42.60480074
43.62254174
44.53968417
45.41019779
0.4485815601
1.410787352
2.441979998
3.465566503
4.479854583
5.48811835
6.492907975
7.49571935
8.497395446
9.498408574
10.49902698
11.49940646
12.4996396
13.49978256
14.49986983
15.49992277
16.49995467
17.49997377
18.49998522
19.49999221
20.49999683
21.50000054
22.50000464
23.50001068
24.50002096
25.50003943
26.5000731
27.50013468
28.50024789
29.50045877
30.50085896
31.50162941
32.50311997
33.50633279
34.51226403
35.51966446
36.51954309
37.5186201
38.52289749
39.53578253
40.5410343
41.54460523
42.6143748
43.59069639
44.57758882
45.59618275
46.51555995
0.4469757912
1.406949766
2.437012125
3.461479255
4.477196209
5.486453889
6.491881344
7.495087887
8.497006696
9.498169181
10.49887983
11.49931635
12.49958474
13.49974938
14.49984992
15.49991092
16.49994766
17.49996963
18.49998271
19.49999056
20.49999548
21.49999899
22.50000225
23.50000641
24.50001291
25.50002395
26.5000432
27.50007705
28.50013744
29.50024817
30.50045807
31.50086438
32.50165036
33.50320834
34.5058856
35.50934398
36.51021555
37.5112545
38.51592757
39.52626997
40.53011243
41.53464038
42.54695368
43.55572535
44.62408735
45.59717749
46.62646549
47.62936859
48.46662452
0.4469986702
1.406983838
2.437031463
3.461488717
4.477200784
5.486456361
6.491882697
7.495088591
8.497007037
9.498169334
10.49887989
11.49931637
12.49958474
13.49974938
14.4998499
15.49991088
16.49994759
17.49996949
18.49998245
19.49999006
20.49999453
21.49999718
22.49999882
23.49999991
24.50000056
25.50000042
26.49999832
27.4999917
28.49997644
29.49994891
30.49991391
31.4999044
32.50001025
33.50032555
34.50088855
35.50146296
36.50146794
37.50206691
38.50508256
39.51147022
40.51655719
41.52307433
42.53467903
43.54332659
44.55692605
45.56972377
46.6342963
47.64441671
48.63166825
49.532161
0.4486222681
1.410843059
2.44201303
3.46558442
4.479864892
5.488124453
6.492911437
7.495721173
8.497396331
9.498408973
10.49902715
11.49940652
12.49963962
13.49978255
14.49986978
15.49992268
16.49995449
17.49997342
18.49998454
19.49999092
20.49999437
21.49999588
22.49999581
23.49999388
24.49998891
25.49997795
26.49995471
27.49990669
28.49981145
29.49963388
30.49933115
31.49888072
32.49835002
33.49764298
34.49661002
35.49498316
36.49274794
37.49093589
38.49187828
39.49744013
40.5029381
41.50956476
42.51870272
43.52910415
44.54501818
45.56099693
46.57609763
47.65075196
48.6165256
49.62712905
50.60560393
51.40700722
0.4564493221
1.421781948
2.453246503
3.473618665
4.484893742
5.491220587
6.494804713
7.496879703
8.498107067
9.498845489
10.49929492
11.49957021
12.49973915
13.49984267
14.49990581
15.49994407
16.49996705
17.4999807
18.49998865
19.4999931
20.49999527
21.49999576
22.49999458
23.49999103
24.49998316
25.49996647
26.499931
27.49985596
28.49970123
29.49939758
30.49884388
31.49793835
32.49682222
33.49522091
34.49275681
35.48884898
36.48328872
37.47714609
38.47486817
39.4824652
40.48843392
41.4957398
42.50333718
43.51302654
44.52703376
45.54430385
46.55588661
47.56957752
48.57648014
49.62771113
50.61465599
51.57787784
52.42182999
0.4540786761
1.430850171
2.466384705
3.482176765
4.490277672
5.494544572
6.496836073
7.498120914
8.49886732
9.499311761
10.49958062
11.4997447
12.49984519
13.49990668
14.49994416
15.49996684
16.49998046
17.49998852
18.49999318
19.49999571
20.4999968
21.49999673
22.49999533
23.49999186
24.4999844
25.4999684
26.4999332
27.49985503
28.49968442
29.49932887
30.49863928
31.49744161
32.4959925
33.49380318
34.49006236
35.48389461
36.47450191
37.46378892
38.46080286
39.46784986
40.47168643
41.4800018
42.48671703
43.49588238
44.50682727
45.52056161
46.53416071
47.55097784
48.56496697
49.57469143
50.63084277
51.61643875
52.58069717
53.42027025
0.4622607408
1.459365167
2.497191403
3.494803155
4.495733463
5.497537589
6.49862431
7.499199189
8.499522444
9.499711494
10.49982474
11.4998935
12.49993549
13.49996114
14.49997676
15.49998621
16.49999187
17.49999521
18.49999713
19.49999814
20.49999852
21.49999834
22.49999748
23.49999548
24.49999112
25.49998126
26.4999576
27.4998991
28.49975654
29.49942706
30.49872143
31.49732482
32.49589225
33.49359515
34.4888549
35.48162207
36.46579972
37.41734897
38.38885409
39.4542667
40.45714292
41.46339469
42.4668348
43.47586342
44.48525399
45.49843926
46.51271294
47.53004817
48.55038686
49.56647872
50.57714883
51.63499829
52.61865351
53.57284585
54.39135498
0.2174515366
1.213482601
2.481013869
3.507534352
4.499450583
5.499238985
6.49960726
7.499780569
8.499871557
9.499923002
10.49995337
11.4999717
12.49998287
13.49998969
14.49999384
15.49999635
16.49999785
17.49999873
18.49999923
19.49999948
20.49999955
21.49999945
22.49999911
23.49999837
24.49999668
25.4999923
26.49997965
27.49994222
28.49983641
29.49956315
30.49892599
31.49751945
32.49612715
33.49381902
34.487799
35.47287078
36.43048069
37.39451527
38.43478305
39.41987625
40.38703816
41.44563271
42.44702351
43.45327854
44.45953887
45.47497617
46.49116933
47.50779389
48.52832634
49.55156575
50.56898804
51.58039319
52.63780727
53.61870741
54.54856264
37.58234396
38.47923485
39.38533469
40.38734366
41.40681947
42.37014047
43.42842238
44.43311653
45.44927911
46.46686125
47.48301541
48.50399966
49.52837903
50.55378521
51.57240342
52.58608357
53.64640642
54.68479284
55.58540356
40.5148877
41.37553714
42.36401001
43.38067478
44.3448127
45.42387853
46.44030029
47.45316413
48.47709227
49.50409834
50.53110096
51.55801218
52.57965532
53.60303301
54.69412938
55.69776283
56.49102525
42.46219315
43.36490236
44.34715552
45.35032037
46.41528309
47.42712632
48.44834613
49.48023732
50.50911821
51.53748342
52.5678128
53.59972968
54.69439154
55.68421302
56.60728354
43.51345943
44.38336126
45.3576525
46.34638029
47.40572183
48.42553762
49.45829615
50.48897043
51.51792484
52.55016846
53.58720133
54.6152835
55.67950805
56.70666079
57.57803241
44.53955506
45.38963307
46.35029681
47.33284085
48.40387726
49.43454304
50.46706749
51.49887268
52.53124042
53.56760125
54.59445789
55.61437803
56.69124977
57.66611429
58.42475919
45.53229814
46.36566806
47.31886532
48.31223313
49.40887036
50.44232183
51.47853371
52.51099185
53.54302945
54.57414598
55.60077463
56.68513961
57.66050697
58.53594388
46.48229712
47.29172159
48.29646657
49.3899623
50.42321784
51.45992902
52.49304831
53.52297687
54.55424241
55.58757409
56.61557882
57.69553612
58.66675702
47.38759739
48.27887622
49.31915951
50.40860737
51.44131995
52.47598282
53.50681307
54.53782755
55.5731634
56.60494659
57.69156905
58.71028164
59.5482298
48.34718941
49.31815786
50.39667192
51.42561435
52.45928196
53.49171431
54.52273317
55.55746304
56.59421016
57.62147806
58.68825454
59.59946071
48.44355259
49.30189187
50.32501985
51.40951754
52.43930983
53.47523344
54.50929126
55.54565613
56.58667721
57.61581075
58.70799607
59.68627858
60.42318437
49.35610478
50.3191734
51.39201626
52.41965623
53.4571899
54.49529169
55.5326447
56.57338352
57.6047596
58.68863107
59.63960343
60.47250196
49.49230379
50.33816464
51.3055249
52.39897106
53.43557394
54.48020923
55.5195076
56.55858192
57.5956642
58.61908715