/*--------------------------------*- C++ -*----------------------------------*\
| =========                 |                                                 |
| \\      /  F ield         | OpenFOAM: The Open Source CFD Toolbox           |
|  \\    /   O peration     | Version:  4.1                                   |
|   \\  /    A nd           | Web:      www.OpenFOAM.org                      |
|    \\/     M anipulation  |                                                 |
\*---------------------------------------------------------------------------*/
FoamFile
{
    version     2.0;
    format      ascii;
    class       volScalarField;
    location    "5";
    object      p;
}
// * * * * * * * * * * * * * * * * * * * * * * * * * * * * * * * * * * * * * //

dimensions      [0 2 -2 0 0 0 0];

internalField   nonuniform List<scalar> 
24850
(
-0.2582558661
-0.2816939246
-0.2771247992
-0.2716998935
-0.2713247321
-0.2726017848
-0.2717385991
-0.2713254497
-0.2714420578
-0.2713769611
-0.2712166051
-0.2710475048
-0.2708923101
-0.2706838632
-0.2704143349
-0.2700761162
-0.2696469201
-0.2691022843
-0.2684105317
-0.2675316347
-0.266415691
-0.2649991492
-0.2632009176
-0.2609177103
-0.2580159608
-0.2543245801
-0.2496034075
-0.2435608484
-0.2355488256
-0.2250035273
-0.2090296138
-0.1985811096
-0.1917025805
-0.1892561353
-0.2643088977
-0.2654380362
-0.2697535078
-0.2745719305
-0.2731132432
-0.2714773236
-0.2712946084
-0.2720583568
-0.2715472352
-0.2714308122
-0.2716625759
-0.2715861588
-0.2714354653
-0.2713144713
-0.2712026296
-0.2710844549
-0.2709373297
-0.2707411653
-0.2704835597
-0.2701512057
-0.2697231635
-0.2691723044
-0.2684644377
-0.2675551321
-0.266386755
-0.264884884
-0.2629522138
-0.2604617242
-0.2572364641
-0.2530425323
-0.2474774463
-0.2401516142
-0.2304271076
-0.22238609
-0.2134202474
-0.2041692621
-0.1880086268
-0.1872557226
-0.1760857787
-0.1793458165
-0.2674431686
-0.2668554946
-0.2696956816
-0.2720134858
-0.2732150915
-0.2726399986
-0.2718750816
-0.2718002218
-0.2715274782
-0.2715753889
-0.2718018945
-0.2717520032
-0.2716483008
-0.271587272
-0.2715320657
-0.2714820328
-0.2714263902
-0.271347086
-0.2712406365
-0.2710997887
-0.2709121153
-0.2706628063
-0.2703330424
-0.2698975968
-0.2693232477
-0.2685667023
-0.267571222
-0.2662626635
-0.2645396407
-0.2622609258
-0.2592442464
-0.2553017162
-0.2500086794
-0.2444246947
-0.2381988054
-0.2315121033
-0.2256339922
-0.2184366654
-0.2062623935
-0.1967087798
-0.1777374534
-0.1735026336
-0.1718857167
-0.2673122764
-0.2669518417
-0.2697427008
-0.2720623109
-0.2732717962
-0.2726972357
-0.2719361914
-0.2718740925
-0.271621178
-0.2716942754
-0.2719495855
-0.271929557
-0.2718566203
-0.2718413575
-0.2718649714
-0.2719124299
-0.2719679689
-0.2720259369
-0.2720923847
-0.2721691038
-0.2722545019
-0.2723479989
-0.2724486458
-0.2725536048
-0.2726580471
-0.2727549112
-0.2728348013
-0.2728869644
-0.2729046221
-0.2728944164
-0.2729153759
-0.2730492663
-0.2734635475
-0.2727391337
-0.2695459009
-0.2627776959
-0.2576816171
-0.2513559592
-0.2403753521
-0.2266681646
-0.2159888024
-0.2019192215
-0.1898214964
-0.1664488759
-0.1716276245
-0.2666175156
-0.2655876953
-0.2697953213
-0.2746441659
-0.2732154466
-0.2716147229
-0.2714665932
-0.2722611039
-0.2717902183
-0.2717351213
-0.2720530058
-0.2720817385
-0.2720548821
-0.272086694
-0.2721599098
-0.2722819046
-0.2724462141
-0.2726353133
-0.2728613011
-0.2731374315
-0.2734735168
-0.2738826048
-0.274381084
-0.2749881541
-0.275727199
-0.2766276459
-0.2777283972
-0.2790839439
-0.280784414
-0.2829833541
-0.2860277864
-0.2903939819
-0.296927026
-0.300861214
-0.2997755658
-0.2943763525
-0.2897952572
-0.2854435333
-0.2757785543
-0.2608427801
-0.2493091196
-0.2332604754
-0.2194576989
-0.2048352881
-0.1930288137
-0.1713654971
-0.2583462561
-0.2818815288
-0.2773269827
-0.271921
-0.2716034477
-0.2729333257
-0.2721626648
-0.2718522928
-0.2721005274
-0.2722017856
-0.2722557787
-0.2723642395
-0.2725394797
-0.2727546084
-0.2730181069
-0.273340239
-0.2737434166
-0.2742456367
-0.274868245
-0.2756402883
-0.2765981192
-0.2777868336
-0.2792634927
-0.2811014403
-0.2833978767
-0.2862852671
-0.2899640144
-0.2947453618
-0.3013210613
-0.3109518355
-0.3270913983
-0.3396970643
-0.3426126585
-0.3376451639
-0.3378278219
-0.3418838148
-0.31509769
-0.2998015956
-0.2863547618
-0.2716842092
-0.2517325254
-0.2365863519
-0.2198340148
-0.1978767455
-0.182027891
-0.1832518611
-0.3449487047
-0.3605150426
-0.3292476809
-0.311861776
-0.2898872224
-0.2737074833
-0.2531257431
-0.2312038967
-0.2210540992
-0.2015085088
-0.1856418164
-0.3526401854
-0.3722832926
-0.3319337034
-0.3127195734
-0.2896182427
-0.2688120321
-0.2503118802
-0.2336099659
-0.2136820658
-0.2061929051
-0.3584025861
-0.3699897564
-0.3290878647
-0.3068467533
-0.2870221391
-0.2662231154
-0.2464800392
-0.2328542992
-0.2266410056
-0.3578056215
-0.3433482849
-0.3230564932
-0.2999210237
-0.2795519447
-0.2594478327
-0.2504516415
-0.2490648706
-0.3721502274
-0.3666663206
-0.3314249895
-0.3110102819
-0.2894205262
-0.2708464925
-0.2673730863
-0.2707313423
-0.3544471225
-0.3409484941
-0.3151770409
-0.2886257982
-0.2765865712
-0.2739131233
-0.283218519
-0.3536493136
-0.327336296
-0.3023058454
-0.2782045884
-0.270538384
-0.2713264436
-0.3763726929
-0.3293191098
-0.2993504986
-0.266287002
-0.2354949029
-0.2139431406
-0.1892709931
-0.3217235742
-0.2877227011
-0.2461645443
-0.1956178006
-0.1584133745
-0.1218949111
-0.08455569824
-0.2631672647
-0.2222750508
-0.1703948899
-0.1196753614
-0.07750601199
-0.03627717529
-0.2823583613
-0.2124849218
-0.1566327103
-0.09031325103
-0.03307492932
0.02993849895
0.08231400306
-0.1819900873
-0.1364685853
-0.07660243607
-0.01845955537
0.03144691892
0.07554274858
-0.2230221446
-0.1409079532
-0.07869796789
-0.01339113939
0.04210196111
0.09282855685
-0.1214526437
-0.07633025502
-0.01706941934
0.04298318385
0.1142140313
0.1576713594
-0.1684463687
-0.08566361676
-0.0210299151
0.03564439948
0.08262403311
0.124357828
-0.08519010353
-0.03518195705
0.02613946507
0.0746516085
0.1221550144
-0.1292453713
-0.04985709904
0.01214345622
0.06206142415
0.1099636594
-0.1251984819
-0.04930277685
0.005269433152
0.05664211988
0.1220506846
0.1576925914
-0.1197881692
-0.04834992047
-0.0004801328776
0.04510598819
0.08813597303
0.1228821918
-0.1206404167
-0.05092641611
-0.009113401885
0.0327803261
0.06910320798
0.1097924652
-0.1104007782
-0.04764737536
-0.01256134365
0.02620335075
0.05837649717
0.09456575092
-0.08656133964
-0.0379072042
-0.01140877868
0.02188997108
0.04756157391
0.07801626998
-0.05827597485
-0.02684487746
-0.008748533174
0.01603098392
0.03416382635
0.05588730723
-0.04300957011
-0.02052950386
-0.00745466614
0.01105517391
0.02438499052
0.04070976849
-0.03521549933
-0.01790341234
-0.007125481993
0.007529306675
0.01810211621
0.03131954635
-0.02950703764
-0.01590625515
-0.006877683326
0.004719868464
0.01339126113
0.02403867655
-0.02447626171
-0.01383810924
-0.0065701915
0.002419208817
0.009523879487
0.01826867429
-0.02037507435
-0.0120743115
-0.006304158433
0.0006630442904
0.006389038172
0.01344453083
-0.01719926459
-0.01070852731
-0.006100475528
-0.0006267508792
0.003941842966
0.009568171785
-0.01472560478
-0.00963688571
-0.005933647323
-0.001584301929
0.002066322029
0.006593716705
-0.01275811974
-0.008757531834
-0.00579363553
-0.002319912984
0.0006011295903
0.00423554033
-0.01117626324
-0.008017837886
-0.005646320582
-0.002883285351
-0.0005514392432
0.002355241611
-0.009910281509
-0.007407367574
-0.005502718953
-0.003305729307
-0.001453837175
0.0008707819088
-0.008902880817
-0.00691772205
-0.005394459372
-0.003644317559
-0.002167023706
-0.0003051541123
-0.00810148089
-0.006527425155
-0.005318694967
-0.0039249839
-0.002736718122
-0.001243817937
-0.007461641366
-0.006212287767
-0.005252812325
-0.00414373739
-0.003189084286
-0.001994111125
-0.00695003419
-0.005957255464
-0.005193297963
-0.004310603556
-0.003547054451
-0.002592961719
-0.006542410933
-0.00575334197
-0.005143988915
-0.004441391114
-0.003832320296
-0.003071351942
-0.006219479056
-0.005592501353
-0.005106258249
-0.004546975098
-0.004061421775
-0.003454406847
-0.005964768723
-0.005466537661
-0.005078566417
-0.004633385482
-0.004246189651
-0.003761920416
-0.00576479643
-0.005368824896
-0.00505908808
-0.004704673938
-0.004395737461
-0.004009362658
-0.005608485408
-0.005293586344
-0.005046577434
-0.004764414961
-0.004517700606
-0.004209449513
-0.005487592978
-0.005237204367
-0.005039968148
-0.004815166299
-0.004617908048
-0.004371906444
-0.005394940182
-0.00519576278
-0.005038750476
-0.004859557296
-0.004701273719
-0.004504650206
-0.005325799757
-0.005166813403
-0.005041693914
-0.004898784397
-0.004771264978
-0.004614139266
-0.005274886295
-0.005148095716
-0.005049144995
-0.004934914594
-0.004831211329
-0.004704825218
-0.005240313037
-0.00513740254
-0.005058795549
-0.004967726501
-0.004883487698
-0.004782466974
-0.005216865094
-0.005132771207
-0.005070478075
-0.004997761265
-0.004930624064
-0.00484985195
-0.005205309227
-0.005135411214
-0.005082628796
-0.005024738635
-0.004974621038
-0.004913114391
-0.005204233869
-0.00514513912
-0.005095472951
-0.005047398006
-0.005018833752
-0.00497454165
-0.005218120575
-0.005168735486
-0.00512321281
-0.005087845527
-0.005072857355
-0.005042514108
-0.005253614474
-0.005209720708
-0.005174963889
-0.005149406521
-0.005138410298
-0.005123161789
-0.005326045619
-0.005272598544
-0.005239412048
-0.005219766645
-0.005218943301
-0.005227669241
-0.005458099658
-0.005363910767
-0.005316334739
-0.005300433601
-0.005323939264
-0.005379474492
-0.005748238497
-0.005518305236
-0.005423638385
-0.005407597835
-0.005491673751
-0.005686896948
-0.006296434618
-0.005715857353
-0.005563219388
-0.005543965836
-0.005694609623
-0.006247513446
-0.007915551983
-0.006039222052
-0.005736731709
-0.005716291583
-0.006020302266
-0.007871156172
-0.009259470466
-0.00552612719
-0.005701438944
-0.005673691146
-0.005515481731
-0.009234767761
-0.01636407418
-0.003635053445
-0.005357271785
-0.005330681722
-0.003612619511
-0.01633108182
0.0004784902165
-0.003186553065
-0.003164482007
0.0005549045613
0.004820047247
0.001327096679
0.002600297535
0.002238284355
-0.2622423367
-0.277221471
-0.2761714181
-0.2723258098
-0.2716442227
-0.2717378908
-0.2714964208
-0.2710862512
-0.2711241317
-0.2710554196
-0.2708564739
-0.2705762476
-0.270242139
-0.2698753915
-0.2694144578
-0.2688256014
-0.2680846134
-0.2671525192
-0.2659785199
-0.2645010587
-0.2626436278
-0.2603101495
-0.2573802845
-0.2537027981
-0.249086566
-0.2432825972
-0.2359705872
-0.2266413657
-0.2146163713
-0.1980008202
-0.176380869
-0.1647745376
-0.1513257893
-0.2675964188
-0.2676890727
-0.2678590329
-0.2728435143
-0.2742570123
-0.27250611
-0.271670547
-0.2716959093
-0.2715155961
-0.271170223
-0.2712557704
-0.2711815291
-0.2709770815
-0.2707384112
-0.270480841
-0.2701874834
-0.2698087081
-0.2693226094
-0.2687072569
-0.2679296068
-0.266946751
-0.2657056484
-0.2641399305
-0.2621657675
-0.2596773716
-0.2565408775
-0.2525858837
-0.2475902869
-0.2412625948
-0.2331863873
-0.2227913895
-0.2093360991
-0.1922082956
-0.179220925
-0.1625888878
-0.1432001087
-0.1523551738
-0.1358011494
-0.1285402986
-0.1190985287
-0.2674073116
-0.2669235511
-0.2674957681
-0.2732134057
-0.2738593169
-0.2718789066
-0.271710078
-0.2715293515
-0.271307992
-0.2711096975
-0.2713254857
-0.2713296413
-0.2711513917
-0.2709583803
-0.2707702627
-0.2705208446
-0.2701991755
-0.2698013607
-0.2693021309
-0.2686713094
-0.267872731
-0.2668616653
-0.265582404
-0.2639644977
-0.2619187853
-0.2593324424
-0.2560613967
-0.2519205975
-0.2466628325
-0.2399743635
-0.2314237325
-0.2208395655
-0.208048594
-0.1970272537
-0.1879469642
-0.1784005402
-0.1675318297
-0.1571395766
-0.1491363726
-0.1385331266
-0.1280786856
-0.1256517363
-0.1087921992
-0.2676442569
-0.2678767452
-0.2697472366
-0.2720111821
-0.2721777411
-0.2714821376
-0.2717985778
-0.2722232295
-0.2716465101
-0.2714721994
-0.2714063273
-0.2713610642
-0.2713027663
-0.2712267194
-0.2711065051
-0.2709516843
-0.2707697327
-0.2705347012
-0.2702265646
-0.2698307832
-0.2693244116
-0.2686770426
-0.2678505813
-0.266796157
-0.2654512395
-0.2637361812
-0.2615491013
-0.2587601282
-0.2552041682
-0.2506928132
-0.2450208998
-0.2381310522
-0.2300904182
-0.2219808434
-0.2132963773
-0.2009300074
-0.1888411352
-0.1825054318
-0.1755489081
-0.164263171
-0.1520874202
-0.1440003759
-0.1282879219
-0.1222692641
-0.1150064566
-0.2679859936
-0.2680803526
-0.2693992262
-0.2715437845
-0.2722919757
-0.2717133923
-0.2717134782
-0.2718472658
-0.2715179319
-0.2715315034
-0.2716056977
-0.2716006888
-0.2715777817
-0.2715415002
-0.2714996253
-0.2714568951
-0.2713932807
-0.2713038821
-0.2711864113
-0.2710325858
-0.2708294203
-0.2705616856
-0.27021009
-0.2697489842
-0.2691449614
-0.2683549558
-0.2673236926
-0.2659785718
-0.2642305191
-0.2619895937
-0.2591260606
-0.2555068049
-0.250993871
-0.2457377268
-0.2394633363
-0.231933721
-0.2243988088
-0.2168269959
-0.205931174
-0.1904426626
-0.1758989692
-0.167868451
-0.1571979123
-0.1422697795
-0.1281721477
-0.1150294186
-0.1100273178
-0.2680144107
-0.2681149042
-0.2694362167
-0.2716020938
-0.2723490606
-0.2717681588
-0.2717779493
-0.2719249902
-0.2716186125
-0.2716631032
-0.2717654971
-0.2717968567
-0.2718176533
-0.2718504906
-0.2718941044
-0.2719501104
-0.2720139474
-0.2720827029
-0.2721640177
-0.2722602247
-0.272370865
-0.2724971431
-0.2726403143
-0.2728004563
-0.2729766231
-0.2731667608
-0.2733675764
-0.2735745947
-0.2737836044
-0.2739870138
-0.2741533754
-0.2741749716
-0.273799071
-0.2724368662
-0.2693449
-0.2641260868
-0.2576189609
-0.249664817
-0.2388929639
-0.226069912
-0.2130995627
-0.20069691
-0.1834219993
-0.1660570514
-0.1546994995
-0.141228872
-0.1301457449
-0.1161657452
-0.2677150949
-0.2679137291
-0.2698039692
-0.2720871368
-0.2723053815
-0.2716295038
-0.2719795917
-0.2724437732
-0.2719269059
-0.271844518
-0.2718889646
-0.2719585301
-0.2720498261
-0.2721591306
-0.2722697672
-0.2724177529
-0.2726207537
-0.2728576996
-0.2731425724
-0.273492509
-0.2739220907
-0.2744499761
-0.2750994153
-0.2758984758
-0.2768819765
-0.2780939526
-0.2795914434
-0.2814498432
-0.2837722938
-0.2866889376
-0.2903431729
-0.2946982783
-0.2992834021
-0.3023693924
-0.3024005243
-0.2991763692
-0.2938929037
-0.2864339314
-0.275017987
-0.2613285586
-0.2477267476
-0.2331727009
-0.2170552076
-0.201352763
-0.1837429807
-0.1646341739
-0.1500928858
-0.1381379905
-0.1228564163
-0.1225476713
-0.2675544095
-0.2670353267
-0.2676671465
-0.2734429907
-0.2741060574
-0.2721603371
-0.2720497968
-0.2719458268
-0.2718268192
-0.2717462586
-0.2721013668
-0.2723029024
-0.272382722
-0.2724941099
-0.2726961504
-0.2729580181
-0.2732611584
-0.2736377258
-0.2741168612
-0.2747168518
-0.2754640314
-0.2763950886
-0.2775561429
-0.2790052408
-0.2808167305
-0.2830871329
-0.2859449826
-0.2895657415
-0.2942046586
-0.3002291478
-0.3082131694
-0.3186283372
-0.3314678409
-0.3421749023
-0.3469958035
-0.346558272
-0.3440504906
-0.3392715714
-0.3222871959
-0.3005414916
-0.2858524516
-0.2708721163
-0.2530422901
-0.2352150475
-0.2167679264
-0.1944092878
-0.1788194581
-0.1661081191
-0.153239472
-0.1392430983
-0.1271260124
-0.2669398679
-0.2677951129
-0.2680435375
-0.2730907103
-0.2745470136
-0.2728250005
-0.2720557586
-0.2721642489
-0.272132831
-0.2719595076
-0.2722464691
-0.2723920206
-0.2725075968
-0.2726608041
-0.2729215662
-0.273250424
-0.2736427082
-0.2741322498
-0.2747467662
-0.275514216
-0.27647302
-0.2776728491
-0.2791762881
-0.2810631519
-0.2834367626
-0.2864329045
-0.2902352976
-0.2950993199
-0.3014092405
-0.3097433124
-0.3211355694
-0.3368065934
-0.3586090474
-0.3773217031
-0.3859773022
-0.3847496498
-0.388019752
-0.3838412339
-0.3660425365
-0.3518300236
-0.3340476752
-0.3117578014
-0.2919981389
-0.2723053988
-0.2520353729
-0.2320798789
-0.21608424
-0.1949737578
-0.1770576536
-0.1658037217
-0.1578055858
-0.150237666
-0.2654996572
-0.2679471098
-0.2625096757
-0.277562974
-0.2765645665
-0.2727193455
-0.2721045204
-0.27216353
-0.2722476715
-0.2720498938
-0.272330177
-0.2725743666
-0.2727165508
-0.2729105181
-0.2731979904
-0.2735959273
-0.2740762711
-0.2746742914
-0.2754283044
-0.2763743469
-0.277560533
-0.2790500159
-0.2809229908
-0.2832823861
-0.2862622104
-0.290039366
-0.2948538912
-0.3010395389
-0.3090998307
-0.3198169687
-0.3348087647
-0.3570701206
-0.3941320797
-0.4259285837
-0.4371160009
-0.4423925475
-0.4444029042
-0.4535648487
-0.4271790031
-0.4009282151
-0.3817797452
-0.3660305451
-0.3408649316
-0.3127066535
-0.2905884274
-0.2687927482
-0.2495653971
-0.2307120743
-0.2095076254
-0.1964083468
-0.1872121573
-0.1824254139
-0.1752115196
-0.4527012413
-0.4684127191
-0.4502613074
-0.4184319021
-0.3871156462
-0.3677766582
-0.3378962748
-0.3066913327
-0.2854997889
-0.2652670078
-0.2471111206
-0.2304286003
-0.2199330826
-0.2131010514
-0.2118134245
-0.2126074864
-0.4819927385
-0.4745505128
-0.4509586797
-0.4127690798
-0.3816213465
-0.3513526549
-0.3213618609
-0.2989492258
-0.2798630673
-0.264905294
-0.2519379759
-0.2477283736
-0.2453357128
-0.2530349985
-0.2700617773
-0.4838969144
-0.4715221964
-0.4356605812
-0.3981900745
-0.3692947384
-0.3382462732
-0.3092777656
-0.292365714
-0.2820845441
-0.277270909
-0.2791699126
-0.2898413598
-0.3156920704
-0.467513772
-0.4488972766
-0.4045461498
-0.3726149343
-0.3379150396
-0.3120624507
-0.2980702951
-0.293966738
-0.2963837254
-0.3056029374
-0.3265947714
-0.3346189262
-0.4763393924
-0.4360933086
-0.3994038366
-0.354960104
-0.3228707113
-0.3030779444
-0.289814016
-0.2872260636
-0.2876963752
-0.2906286955
-0.2939123116
-0.2842478033
-0.4684855124
-0.4263973523
-0.3792292691
-0.3308286549
-0.2945544528
-0.2686049626
-0.2507416627
-0.2370138163
-0.2197233294
-0.1991861448
-0.1676645964
-0.4470769466
-0.3985787384
-0.3407907972
-0.2863967528
-0.2412979848
-0.2049134057
-0.1710990835
-0.1389952892
-0.09668902627
-0.05138288664
0.006471512231
-0.3873468812
-0.3389964553
-0.274915559
-0.2170036116
-0.1669744434
-0.1177594907
-0.0729719084
-0.01936191091
0.02958961398
0.07365892419
-0.4217240919
-0.3379746013
-0.2826419676
-0.2138475996
-0.1458036082
-0.08618852888
-0.0314402102
0.02712046332
0.08106508511
0.1293684454
0.1853739067
-0.3389411572
-0.2817083959
-0.2064278513
-0.1345085198
-0.07239982852
-0.01330400843
0.04275831795
0.1014262698
0.1467426509
0.1930687706
-0.3833719839
-0.2846879454
-0.2241027903
-0.1506237713
-0.07203408809
-0.009228627578
0.04810223641
0.1076368412
0.1527387164
0.1934103523
-0.2921718203
-0.2281647225
-0.1506560979
-0.07753855704
-0.0140267979
0.04593433179
0.1085709141
0.1578795556
0.2042932276
0.2442144303
-0.3436327548
-0.2304239984
-0.1731119381
-0.09905812841
-0.02226549457
0.0365981632
0.08889496309
0.1462049675
0.1880927449
0.2305467416
-0.2410082047
-0.182398868
-0.1087970264
-0.03347159906
0.02522062261
0.07792135708
0.1342142887
0.1727180091
0.2125242473
-0.2909654726
-0.1903470184
-0.1197951824
-0.04413558784
0.01427726912
0.06762336294
0.1232155732
0.1629593501
0.2013091467
-0.2863729101
-0.1861918282
-0.121931269
-0.04917758142
0.00611469906
0.0565658187
0.1109077021
0.1504052088
0.1775603346
-0.2607583979
-0.1743564897
-0.1198736508
-0.05170501328
-0.0008490318769
0.04494175726
0.08711896502
0.1355891495
0.1826560223
0.2171593759
-0.2414628406
-0.1653666727
-0.1165207478
-0.05272564967
-0.00704336693
0.03513518779
0.07388474029
0.1163405588
0.1479551959
0.1761287073
-0.2152167569
-0.1483838142
-0.1058206218
-0.05007566785
-0.01022053855
0.02727339078
0.06169502519
0.09625928203
0.1198981691
0.1478124701
-0.1643147036
-0.1175270972
-0.0871902946
-0.04362154821
-0.01066434023
0.02060853235
0.04965809513
0.07886467175
0.1000001578
0.1271029673
-0.1095055413
-0.08442405907
-0.06627402631
-0.03526887987
-0.009855957346
0.0153222154
0.03871705953
0.06202215207
0.0764373761
0.09306008962
-0.08053701808
-0.0631331831
-0.05096587684
-0.02841016104
-0.008902007158
0.01097761784
0.02946314722
0.0471206692
0.05762781435
0.06861039585
-0.06486344181
-0.05116015041
-0.04151665038
-0.0239164287
-0.008260375292
0.007375406981
0.0222919506
0.03600997526
0.04445970346
0.05357984142
-0.05298643351
-0.04221404028
-0.03468957425
-0.0206935265
-0.007799886731
0.004546596283
0.01683468362
0.02800083538
0.03451125794
0.04243743466
-0.04280307935
-0.03433217603
-0.0287778202
-0.01784395255
-0.007377152075
0.002382805464
0.01246855841
0.0217108863
0.02662504282
0.03275195549
-0.0346500122
-0.02795272387
-0.02380694053
-0.01532132407
-0.006953705879
0.0007473971039
0.008854800093
0.01620474758
0.02023140319
0.0250522782
-0.02839885542
-0.02315756982
-0.01988190434
-0.01325219637
-0.006578894569
-0.0004695323135
0.005985219789
0.0117248805
0.01501420903
0.01900861545
-0.02357645333
-0.01949016015
-0.01682389422
-0.01162020918
-0.006299360064
-0.001412856336
0.003728649647
0.00833237004
0.01092066284
0.01423335866
-0.01974770904
-0.01655714935
-0.0144011504
-0.01031706386
-0.006068999503
-0.002166683315
0.001939213102
0.005658574413
0.007703745265
0.01038658685
-0.01669026626
-0.01419145983
-0.01246551965
-0.009254448404
-0.005867830634
-0.002754975176
0.0005248846363
0.00350165914
0.005145548468
0.007290129471
-0.01426975159
-0.01230353227
-0.01092631382
-0.008388922382
-0.005690487813
-0.003211918499
-0.0005902109597
0.001786609492
0.003109686382
0.004828007489
-0.01235580597
-0.01080342892
-0.009705630839
-0.00769356256
-0.005543718374
-0.003569075854
-0.001474609495
0.000426128168
0.001485151214
0.00286528625
-0.01083614139
-0.009609171022
-0.008735107273
-0.007138192732
-0.005426618451
-0.003853343052
-0.00217973895
-0.0006588134227
0.0001877271028
0.001295081813
-0.00962804299
-0.008657708639
-0.007962077824
-0.006694051062
-0.005331781219
-0.004078697865
-0.00274152503
-0.001525482269
-0.0008487009387
3.906492301e-05
-0.008668848997
-0.007900641601
-0.007346658073
-0.006339171977
-0.005254554981
-0.004256623439
-0.003188685343
-0.002217469145
-0.001676744095
-0.0009654526647
-0.007907945778
-0.007299118321
-0.006857775226
-0.006057043298
-0.00519313335
-0.004398249367
-0.003545660897
-0.002770499515
-0.002338691511
-0.001769281357
-0.007304919119
-0.00682205183
-0.00647046612
-0.005834008915
-0.005145651887
-0.004512422968
-0.003831896186
-0.003213431627
-0.002868701621
-0.002413169967
-0.006827733571
-0.006444536233
-0.006164533616
-0.005658553428
-0.005109962053
-0.004605491164
-0.004062399468
-0.003569031856
-0.003293827422
-0.002929607035
-0.006450946932
-0.006146704289
-0.005923606464
-0.005521267069
-0.005084025417
-0.004682091651
-0.004248684349
-0.003855203481
-0.003635587246
-0.003344452108
-0.006154188
-0.00591250701
-0.005734817394
-0.005414635937
-0.005066147339
-0.004745903715
-0.004400175467
-0.004086305694
-0.003910999752
-0.003678471399
-0.005921405951
-0.005729432629
-0.005587689198
-0.005332820061
-0.005055058584
-0.00479979285
-0.004524005676
-0.004273720528
-0.004133874764
-0.003948150291
-0.005739850832
-0.005587229769
-0.005474256367
-0.005271000368
-0.005049672911
-0.004846156442
-0.004626241803
-0.004426557093
-0.004314960325
-0.004166880958
-0.005599319894
-0.005478135737
-0.005387725767
-0.005225251754
-0.005049015244
-0.004886671863
-0.004711499147
-0.004552260104
-0.004463269548
-0.00434511461
-0.005492173485
-0.005395667021
-0.005323136436
-0.005192855196
-0.005052549914
-0.004922806221
-0.004783365329
-0.004656512931
-0.004585715074
-0.004491841744
-0.005412227196
-0.005335363409
-0.00527696584
-0.005171000092
-0.005059095559
-0.004955503334
-0.004845089368
-0.004744801987
-0.004688674712
-0.004614108515
-0.005355244843
-0.005293432314
-0.005245323941
-0.005158646735
-0.005068901131
-0.004986449352
-0.004899634807
-0.004821170784
-0.004777480221
-0.004718878544
-0.005318446124
-0.005268291735
-0.005227965064
-0.005155272737
-0.005081944921
-0.005016178472
-0.004949130328
-0.004890366743
-0.00485791062
-0.004812009872
-0.005302274713
-0.005260087505
-0.005223597992
-0.00516044439
-0.005099105627
-0.005046897707
-0.004997711578
-0.004956938519
-0.004935238363
-0.004900743388
-0.005307231465
-0.005270893742
-0.00523551188
-0.005177114907
-0.005123930355
-0.005082996495
-0.005049826415
-0.005027062375
-0.005015849387
-0.004992406884
-0.005343735624
-0.005306070542
-0.005269647871
-0.00520715765
-0.00515818697
-0.005126669713
-0.005109129751
-0.005108107061
-0.005108434069
-0.00509607951
-0.005422598711
-0.00538080551
-0.005339149829
-0.005252851925
-0.005199666174
-0.005175211237
-0.005177463145
-0.005212559374
-0.005229593742
-0.005229633357
-0.005569429789
-0.00551203736
-0.005463161294
-0.005311467437
-0.005244643011
-0.005225225423
-0.005256873612
-0.005360533011
-0.005401617447
-0.005418587986
-0.005847815729
-0.005756649036
-0.005689836058
-0.005383417984
-0.005296024221
-0.005276056177
-0.005348189698
-0.005609709935
-0.005678404675
-0.005736942271
-0.00635641759
-0.006103617775
-0.006028104145
-0.005417962273
-0.00530633492
-0.005286949354
-0.005392770808
-0.005971552156
-0.006055823479
-0.00627693082
-0.007493800236
-0.0067298217
-0.006692331459
-0.005357853078
-0.005226090672
-0.005204998183
-0.005336725141
-0.006662854912
-0.006707891852
-0.007451303542
-0.009014931178
-0.006279549608
-0.006923542731
-0.004756424187
-0.004865810608
-0.004843032274
-0.004718567022
-0.006919636042
-0.006278502932
-0.009006682246
-0.01199164901
-0.006440403863
-0.007734067707
-0.00372732312
-0.004011460435
-0.003981019709
-0.003718438892
-0.007731906982
-0.006444356759
-0.01206124621
0.001402343462
-0.0009722706418
-0.001592905317
-0.002120160188
-0.002116734447
-0.001604433666
-0.0009643067087
0.001377842944
0.006647504235
0.001190056579
0.0001966918008
-1.848830094e-05
-0.0002952494813
-0.0003024664461
-3.885905786e-05
0.0002566275246
0.001719914717
0.002907903666
-0.261970609
-0.2778624197
-0.2768108854
-0.2724638528
-0.2713307674
-0.2715015852
-0.2714879603
-0.2709733754
-0.2708687099
-0.2707854618
-0.2705709426
-0.2702666389
-0.2698861508
-0.2694230912
-0.2688555526
-0.2681344736
-0.2672249859
-0.2660828802
-0.2646486233
-0.2628495506
-0.2605959582
-0.2577761004
-0.2542507697
-0.2498476389
-0.2443465679
-0.2374805168
-0.2288430224
-0.2180582944
-0.2037091522
-0.1861064515
-0.1587589361
-0.1419443552
-0.1268067732
-0.1182454793
-0.2668969933
-0.2667618542
-0.2677153082
-0.273373836
-0.2740869722
-0.2718880611
-0.2716798182
-0.2720615347
-0.2716408116
-0.2710714466
-0.270906974
-0.2708805463
-0.2707116142
-0.2704443105
-0.2700898744
-0.2696723009
-0.2691601412
-0.2685101729
-0.2676918675
-0.2666639516
-0.2653713018
-0.2637472069
-0.2617092567
-0.2591544151
-0.2559541739
-0.251948494
-0.2469352561
-0.2406602769
-0.2327807366
-0.222870641
-0.2103001871
-0.1948069054
-0.1772797829
-0.1624838618
-0.1482715823
-0.1303103353
-0.1159574067
-0.1153933509
-0.108055341
-0.0926231467
-0.09882501036
-0.2677306868
-0.2679399105
-0.2691013195
-0.2718947844
-0.2729403838
-0.2719969088
-0.271486997
-0.2716602045
-0.271377199
-0.271081195
-0.2709830625
-0.2708898486
-0.2707831706
-0.2705983659
-0.2703237019
-0.2699903115
-0.2695774186
-0.269044742
-0.2683655086
-0.2675069867
-0.2664236283
-0.2650588578
-0.2633422126
-0.2611852682
-0.2584777442
-0.2550827516
-0.2508301655
-0.2455112127
-0.2388692918
-0.2306197887
-0.2204681363
-0.208401401
-0.1947995469
-0.1810552489
-0.165666887
-0.151612733
-0.1444041237
-0.1381333798
-0.1289829583
-0.1172135281
-0.1066664597
-0.09272095567
-0.09129918362
-0.268003653
-0.2678912491
-0.2683491246
-0.2714147317
-0.2728208428
-0.2718913209
-0.2715986689
-0.2720807968
-0.2717540975
-0.2714730132
-0.2712894263
-0.2711988483
-0.2710820219
-0.2708992595
-0.2706956213
-0.2704576995
-0.2701459864
-0.2697443181
-0.2692356339
-0.2685922171
-0.2677775771
-0.2667472285
-0.2654457066
-0.2638031167
-0.2617319902
-0.2591237582
-0.255844434
-0.2517338048
-0.2466050245
-0.2402748299
-0.2325431586
-0.2233812699
-0.2128004504
-0.2019399714
-0.191840093
-0.1826041318
-0.1727843524
-0.1619276925
-0.1517729659
-0.1392957183
-0.1284822969
-0.1211709582
-0.1106137709
-0.09340544111
-0.08427645212
-0.08542486893
-0.2683224301
-0.2685919175
-0.27004343
-0.2720181728
-0.2721283985
-0.271179258
-0.2713748053
-0.2717516897
-0.2714699126
-0.27134705
-0.2713296542
-0.2713210282
-0.2712672246
-0.2711656719
-0.271046078
-0.2709070704
-0.27072383
-0.2704786563
-0.2701603672
-0.2697520758
-0.2692296765
-0.2685631895
-0.2677146725
-0.2666355864
-0.2652646034
-0.2635250698
-0.2613221743
-0.2585423362
-0.2550526412
-0.2507124226
-0.2453600587
-0.2389335193
-0.2314075403
-0.2233400198
-0.2149891355
-0.2063780324
-0.1971248453
-0.1878756094
-0.1788604591
-0.169018748
-0.1575719064
-0.1460686798
-0.13158481
-0.1170912512
-0.1077603765
-0.09600447476
-0.08069307515
-0.2685453506
-0.2687147152
-0.2700762592
-0.2716258418
-0.2717809238
-0.2712156468
-0.2715766032
-0.2719279619
-0.2715886555
-0.2714768957
-0.2715769205
-0.2715937645
-0.2715624063
-0.2715121563
-0.2714747452
-0.2714341171
-0.2713737848
-0.2712845782
-0.2711672809
-0.2710127313
-0.2708083096
-0.2705397744
-0.2701885273
-0.2697298286
-0.2691315787
-0.2683523361
-0.267338602
-0.2660239054
-0.2643215466
-0.2621365458
-0.2593416606
-0.2558442862
-0.2515229053
-0.2463509185
-0.2402139179
-0.2331564092
-0.2254072509
-0.2169740945
-0.2072344442
-0.1967195249
-0.1844688675
-0.1719479086
-0.1609379186
-0.1458989497
-0.1303334721
-0.1161012744
-0.1028191099
-0.08115092266
-0.08977384429
-0.2685753832
-0.268754417
-0.2701319336
-0.2716715405
-0.2718285444
-0.2712817893
-0.2716496419
-0.2720192853
-0.2717060163
-0.2716187298
-0.271753934
-0.2718056218
-0.2718240075
-0.2718457685
-0.2718916328
-0.2719606164
-0.272034251
-0.2721137534
-0.2722079625
-0.2723190067
-0.2724479552
-0.2725976875
-0.2727709529
-0.2729694939
-0.2731940173
-0.273443504
-0.2737138963
-0.2739959864
-0.2742709324
-0.2745019926
-0.2746128536
-0.2744533207
-0.2737579765
-0.2720831691
-0.2688171208
-0.2636582649
-0.2568323215
-0.2484800951
-0.2382790265
-0.2266312776
-0.2141615583
-0.2012827438
-0.1887351266
-0.1729138625
-0.1586005953
-0.1441960722
-0.1280328069
-0.1102209771
-0.09853739102
-0.08390509632
-0.2684032809
-0.2686605584
-0.2701298634
-0.272146972
-0.2722807586
-0.2713494546
-0.2715700112