/*--------------------------------*- C++ -*----------------------------------*\
| =========                 |                                                 |
| \\      /  F ield         | OpenFOAM: The Open Source CFD Toolbox           |
|  \\    /   O peration     | Version:  4.1                                   |
|   \\  /    A nd           | Web:      www.OpenFOAM.org                      |
|    \\/     M anipulation  |                                                 |
\*---------------------------------------------------------------------------*/
FoamFile
{
    version     2.0;
    format      ascii;
    class       surfaceScalarField;
    location    "5";
    object      phi;
}
// * * * * * * * * * * * * * * * * * * * * * * * * * * * * * * * * * * * * * //

dimensions      [0 3 -1 0 0 0 0];

internalField   nonuniform List<scalar> 
70319
(
0.4717972434
-0.1191067091
0.03974153956
-0.1761616391
-0.2162704347
0.4737765192
0.004298279476
-0.006277555307
0.4738659848
0.001598591502
-0.001688057105
0.4710099531
0.005131010183
-0.002274978424
0.4681951523
0.008877875627
-0.006063074826
0.4669233583
0.008599219608
-0.007327425617
0.4666798921
0.005414245628
-0.005170779401
0.4664429772
0.001850853972
-0.001613939064
0.4660538578
0.0003920387614
-2.919316122e-06
0.4656635377
7.241893231e-05
0.000317901245
0.4653591611
0.000184415173
0.0001199613842
0.4651890094
0.000468072002
-0.0002979202551
0.465105032
0.0007800315851
-0.0006960542118
0.4650179086
0.0011190525
-0.001031928999
0.4648864856
0.001489666568
-0.001358243614
0.4647041391
0.001904503611
-0.001722156992
0.4644684307
0.002397675382
-0.002161966964
0.4641699297
0.003006685952
-0.002708184915
0.4637921838
0.00376795255
-0.003390206601
0.4633128359
0.00472095699
-0.004241609079
0.4627032013
0.005913083345
-0.005303448709
0.4619263323
0.007403121783
-0.006626252769
0.4609337965
0.009264125873
-0.008271590028
0.4596621589
0.01158618562
-0.01031454789
0.4580246194
0.01448110159
-0.01284356208
0.4559157146
0.01808558793
-0.01597668303
0.4531468474
0.02258626356
-0.01981739633
0.4495916735
0.0282170998
-0.02466192581
0.4443675019
0.03535008693
-0.03012591512
0.4368773364
0.04488964899
-0.03739948342
0.4286584284
0.05602312277
-0.04780421457
0.4083570124
0.07361204974
-0.05331063349
0.3525310273
0.08890241511
-0.03307642984
0.1885031136
0.1640279139
0.09672800489
-0.002330971875
0.005413098994
0.8644383546
-0.004102532145
-0.0006251137791
-0.110359963
-0.1674181388
-0.3060031335
-0.2441387635
-0.03314616931
0.001355459369
0.7577962804
0.005300671945
-0.01776530678
0.7726899121
0.002277241015
-0.01287259332
0.7817013408
0.001876785309
-0.009289622462
0.7857861649
0.002585531024
-0.00153934486
0.7833498336
0.003381613997
0.007932592849
0.7757026362
0.003054859564
0.01319155754
0.767171583
0.002169948317
0.01177535046
0.7611737429
0.00140017201
0.006448522131
0.7582677614
0.0009736574781
0.002324362822
0.7569835982
0.0008598406654
0.0004967414391
0.7563254822
0.0009172689527
-7.473769209e-05
0.7559345981
0.001051641525
-0.0001926854419
0.7556759326
0.001247933703
-0.0002092365676
0.7554772667
0.001557391566
-0.0002396731597
0.7552946767
0.001969202856
-0.0002969463119
0.7550931716
0.002482234033
-0.0003762252171
0.7548480186
0.003117937783
-0.0004751093932
0.7545395614
0.003911282822
-0.0005961396766
0.7541472803
0.004905578155
-0.0007453444771
0.7536455879
0.006152920895
-0.0009302714771
0.7530012005
0.007717158177
-0.00115968739
0.7521704059
0.009677878922
-0.001443962466
0.7510950693
0.01213474152
-0.00179527895
0.7496972705
0.01521182162
-0.002227837201
0.747870836
0.01906394511
-0.002756409002
0.7454741312
0.02388073399
-0.003398441195
0.7422969299
0.02991746497
-0.004154000038
0.7380816451
0.03747707795
-0.005044693212
0.7321804995
0.04715191502
-0.005900682381
0.7245921451
0.05953044061
-0.007052437042
0.7138178016
0.07566165551
-0.008864189094
0.6936543432
0.09676337315
-0.002987864877
0.6404230971
0.1202862776
0.02184738386
0.5128277167
0.1340776199
0.1820208744
0.4501065392
0.134356351
-0.0716351733
0.4119517341
0.1464971994
-0.1083423941
0.3529260321
0.1628785283
-0.1038528261
0.2354331736
0.1174928587
0.00406516091
0.1921783007
-0.001682143488
0.03207022651
0.888867138
0.0001816824985
0.01585536251
-0.1961573551
-0.2096517174
-0.2491539478
-0.2540436947
0.8959625796
0.000117564211
-0.001912333869
0.9067645451
0.0002047423138
-0.008729466785
0.9157081015
0.0002622232335
-0.00732899431
0.9177974278
0.0002976841673
0.0001985205319
0.9120887953
0.0003290811848
0.008761165351
0.9021576645
0.0003595054588
0.01262648494
0.8939067898
0.0004098020297
0.01001102104
0.8896260457
0.000481691972
0.005199224092
0.8880452399
0.0005695962948
0.001984867038
0.8875616665
0.0006838091951
0.0006596048714
0.8873939313
0.0008410911529
0.0002439130777
0.8872876577
0.001042672451
0.0001152426341
0.8871910761
0.001300654412
4.386094366e-05
0.8870978734
0.001645182952
5.411300002e-06
0.8870050049
0.002078851484
-1.678006544e-05
0.8869003069
0.002616459141
-2.95270723e-05
0.8867712196
0.003285875636
-3.885056554e-05
0.8866057173
0.00412464162
-4.785643623e-05
0.886390447
0.005178355033
-5.750653556e-05
0.8861082961
0.006502756395
-6.768454315e-05
0.8857362792
0.008167181098
-7.800595365e-05
0.885243238
0.01025877764
-8.7857471e-05
0.8845865382
0.0128874516
-9.60102631e-05
0.8837074086
0.01619116614
-0.0001002149237
0.8825243259
0.02034299131
-9.596338254e-05
0.8809239154
0.02555687225
-7.572774873e-05
0.8787400437
0.03211538389
-1.404712542e-05
0.875770317
0.04038025735
6.654741578e-05
0.8716864751
0.05098089456
0.0002548624281
0.8660547601
0.06461205106
0.000550104738
0.8574822911
0.08321490123
0.001019223382
0.8432844615
0.1062925318
0.004668671216
0.8174469834
0.1318016469
0.01432210897
0.7689786383
0.1566342395
0.02591172565
0.7247524292
0.1781062787
0.0004762816599
0.6819941065
0.2016508338
-0.01239531156
0.6185824206
0.2304335304
-0.004143315932
0.5026128725
0.2333174993
0.1180852228
0.4143859221
0.2257246015
-0.1374976508
0.3429371462
0.2188311364
-0.1473823602
0.2656589611
0.07727818531
-0.000700539072
0.2043159508
0.00203557201
0.03572148042
0.8888067082
0.0027071007
0.01555336154
-0.2094248013
-0.1954947086
-0.2536667658
-0.2482992122
0.8963105952
-0.005403089727
-0.001983233036
0.9071799257
-0.001924370844
-0.008740217348
0.9161137558
-0.001323341662
-0.007348265112
0.9182159511
-0.001967293456
0.0001627822848
0.9125542791
-0.002730068833
0.008720822062
0.9026903788
-0.002372341543
0.0125957473
0.8944897186
-0.001401835223
0.01001229745
0.8902326725
-0.0004897481778
0.005228486302
0.888665912
0.000108312751
0.002028044106
0.8881952389
0.0004643660496
0.0006901161793
0.888053396
0.0007286874158
0.000254246696
0.8880071742
0.0009679972643
0.0001208970568
0.8879963695
0.001235716147
7.574298111e-05
0.8880012854
0.001579190243
6.107681864e-05
0.8880201661
0.002000060174
5.99106118e-05
0.8880529592
0.002516144549
6.752152913e-05
0.888096934
0.003159329238
8.257159337e-05
0.8881496106
0.003967541573
0.0001044235352
0.8882091085
0.004985039023
0.0001338181213
0.8882729249
0.006266182548
0.0001727574807
0.8883368955
0.0078791716
0.0002240389056
0.8883941073
0.009910260227
0.0002913057372
0.8884334248
0.01246881298
0.0003793211281
0.8884375173
0.01569286471
0.0004942089436
0.8883809316
0.01975613168
0.0006434454455
0.8882289802
0.02487297807
0.0008358456404
0.8879429768
0.03132158036
0.001079806991
0.8874859373
0.03944865993
0.00138863696
0.8868363123
0.04985613439
0.001774385272
0.8858498949
0.06317663202
0.002421836647
0.8836345994
0.08122969265
0.00420050414
0.8783433788
0.1044926515
0.007091101048
0.8677056706
0.1313510235
0.01108833168
0.8511940562
0.1601900052
0.01295584893
0.8334809461
0.1884175434
0.007401845509
0.8132712598
0.2192897906
0.002570729657
0.7833331975
0.2607571483
-0.000385555345
0.7256857237
0.2845919918
0.0063729815
0.6646721886
0.302495988
-0.01575785121
0.582688006
0.3176216766
-0.01680635736
0.4707086888
0.3055519412
0.0720863374
0.344071948
0.2736834684
-0.1470467273
0.2799233501
0.06414859811
-0.001722093588
0.1564928363
0.001157726521
0.02595925526
0.8645541859
-0.001677510892
-0.166926332
-0.1101043657
-0.2431248354
-0.3057532508
-0.03491258348
0.0006517931136
0.758228651
0.1188832067
-0.01796076157
0.7733150849
-0.004136589944
-0.01287421479
0.7824990006
-0.001321305821
-0.009185951498
0.78668575
-0.004761380331
-0.001392662573
0.7843034595
-0.008452067432
0.008104289098
0.7767098545
-0.008119333628
0.01334059718
0.7682439803
-0.004842798092
0.01190683704
0.7623173811
-0.001153844991
0.006590696048
0.759485281
0.0004507071852
0.002489705628
0.7583000539
0.0009388259232
0.000710767282
0.7577715695
0.00104511527
0.0002120565711
0.7575184771
0.00107556223
0.0001455274132
0.7574165612
0.001150113179
0.0001875189532
0.7574192736
0.001318998178
0.0002574796568
0.7574957477
0.001590327629
0.000333258523
0.7576238692
0.00196969698
0.0004183260855
0.7577940056
0.002465819503
0.0005233733606
0.758007302
0.003097035628
0.0006572095256
0.758270111
0.003894468215
0.0008277618541
0.7585910719
0.004900960277
0.001044261443
0.7589803735
0.006171470901
0.001318399082
0.7594494884
0.007776072907
0.001665072533
0.7600108961
0.009804427503
0.00210297774
0.7606776363
0.01237097142
0.002655153199
0.7614637175
0.01562152552
0.003348524943
0.7623847583
0.0197377838
0.004214153621
0.7634738312
0.02495556204
0.005276945496
0.7647930793
0.0315606949
0.006568716924
0.7665393909
0.04005598985
0.008053833095
0.7686364079
0.05096371004
0.01011590513
0.7697281231
0.06506698793
0.01507098956
0.7692728326
0.08351444631
0.02143349581
0.7679375472
0.1050966439
0.02758966522
0.7700422369
0.1283869467
0.02969836885
0.7784215914
0.1556500771
0.02438811196
0.7955381201
0.1889145381
0.01325872398
0.8202708688
0.2507442853
-0.01471988556
0.8180415006
0.2952455264
-0.008424166179
0.7939761845
0.335190594
-0.008629289685
0.7487143738
0.3674242887
-0.004540801132
0.671169058
0.3790994796
0.003997777634
0.5669418408
0.3786864548
-0.0007757690822
0.415598959
0.3467708571
0.084495375
0.328632734
0.08696622521
0.4720642903
0.03952272148
-0.2163959881
-0.176307817
0.4741365127
-0.006208812382
0.4743308291
-0.001515622174
0.4716184064
-0.002048957627
0.4689082844
-0.005741945446
0.4677174275
-0.006928476716
0.4675484278
-0.004673798362
0.467363857
-0.0009692741672
0.4670200083
0.0007945559214
0.4667150785
0.001243755746
0.4665546094
0.001205584362
0.4665280949
0.00110207671
0.4665999959
0.001078212219
0.4667243765
0.001194617578
0.4668723447
0.001442359467
0.4670437053
0.001798336379
0.4672494068
0.002260118077
0.4675024474
0.002843995088
0.4678156841
0.003581231495
0.4682030466
0.004513597845
0.4686809702
0.005693547335
0.4692693133
0.007187729765
0.4699920781
0.009081662782
0.4708778916
0.01148515791
0.471961729
0.01453768817
0.4732812314
0.01841828152
0.4748966341
0.0233401594
0.4768518787
0.02960545037
0.4795716753
0.03733619333
0.483672237
0.04686314837
0.4862547761
0.06248444889
0.4867134072
0.0830558153
0.4863212787
0.1054887725
0.4916101584
0.1230980672
0.5128004621
0.1344597735
0.5770945561
0.1246204441
0.691127024
0.2862534161
-0.1495415984
0.760227566
0.2402693789
-0.01412439439
0.798227542
0.3148525443
-0.01766192611
0.8042785902
0.3664665693
-0.005093328703
0.7746072781
0.4102720425
-0.001501250659
0.7137982986
0.434481198
0.005014236384
0.6015925281
0.441012409
0.01796421886
0.4722531481
0.4041911409
0.05378097345
0.3268583002
0.3533678083
-0.2079729601
0.3120745236
0.01478377717
0.4214215523
-0.1351681361
0.5432716926
0.1184192387
0.65729652
0.3131241439
-0.1122964267
0.7291052589
0.2944138743
0.0002439563702
0.767503331
0.3806240861
-0.008750115644
0.7662980797
0.4349384831
0.0007479663555
0.7244734271
0.4802452553
0.002591806505
0.6364605435
0.4912101001
0.0009939246478
0.5340098879
0.4724643413
-0.01664587689
0.3821119473
0.4268545307
0.03711793415
0.3390844095
0.04302753842
0.4050349947
-0.09191085066
0.5248580382
0.174590831
0.6299272966
0.3400752303
-0.06452040216
0.7001671667
0.3513496129
0.01334900038
0.7361818439
0.4492659702
-0.005035391965
0.7180059071
0.5137635544
-0.004377517096
0.6520290077
0.5371492362
0.001292004969
0.5427124889
0.5242899418
0.01188110838
0.3792705484
0.4597391892
0.04278716176
0.352114473
0.02715607575
0.3914273286
-0.05135209799
0.5217755158
0.2210014258
0.6256951592
0.390432224
-0.04508589659
0.6974861621
0.4518212603
-0.009848708626
0.6982851315
0.5338068945
0.002543372733
0.6405308542
0.5753588023
0.006685417415
0.5261796915
0.5615940624
0.01249628984
0.3715979724
0.4815743864
0.02512180697
0.3589896691
0.01260830367
0.447250175
-0.05681795081
0.5599881437
0.3624551132
-0.02337182089
0.6369610701
0.4267218698
0.03011209876
0.6649015857
0.5374022825
0.01001600448
0.6186292716
0.6049298431
0.002936534191
0.501134117
0.5928283198
0.006241221631
0.3566618176
0.4968708961
0.006591072949
0.3592612765
-0.002599458855
0.3479290522
0.0145260614
0.4834552185
0.2911957038
0.5646294267
0.4332293367
0.02299873846
0.6209169652
0.5562214265
-0.007579121314
0.58504075
0.6359873722
-0.007282836905
0.4664946767
0.6176422173
-0.002225247569
0.339303594
0.4968895112
-0.0104371525
0.3573646939
-0.01806110013
0.435234596
-0.00200525895
0.5403419301
0.4903486941
-0.03923460118
0.5819896396
0.619283536
-0.02494387286
0.5394007289
0.6704022729
-0.01017114515
0.4154448637
0.6268094339
-0.005964057387
0.3005412739
0.4823499107
-0.01008162878
0.2940619893
0.006479283864
0.4359894793
0.3505579271
-0.2961987119
0.5400895076
0.5564562529
-0.04127274527
0.5445719237
0.6828019781
-0.01688212193
0.4769561514
0.7009972959
-0.006572090421
0.3388344284
0.6097948424
0.01067679096
0.4314659602
0.2014304568
0.3573886589
-0.006830731744
0.4449863517
0.4446003858
0.02425817314
0.5061713855
0.6315704165
-0.009953472917
0.485035449
0.7382535281
-0.01612029647
0.389480447
0.7247356555
-0.01938581246
0.3121874524
0.5924964295
-0.0837374744
0.4126827285
-0.1004952761
0.3780042806
0.06659610467
0.4315429931
0.540234149
0.03779755284
0.4601530475
0.735467361
-0.02582388963
0.4194853672
0.798744538
-0.03334120287
0.3186167942
0.7534155778
-0.06005057597
0.2687724376
0.6039039294
-0.1413768422
0.3691913055
-0.1004188655
0.3436431853
0.4101591536
-0.2135681921
0.4252302493
0.6882620724
-0.03438177672
0.4201378618
0.8378232885
-0.03398636526
0.3631786018
0.8566181993
-0.04624336283
0.2581027346
0.7548147909
-0.04583499278
0.5220323514
0.1052616899
0.3344767657
0.07568238676
0.367652036
0.5834806761
0.07160612304
0.399040748
0.8312123087
-0.02477773406
0.3739806861
0.9172648563
-0.03558659633
0.2938502128
0.8781662453
-0.04322098156
0.2778599715
0.6896020634
-0.151579468
0.4061965683
-0.1283365956
0.2960993203
0.4565788643
-0.1691975104
0.373968312
0.7696342673
-0.01629095194
0.3723843653
0.9418353199
-0.02298651834
0.3198355923
0.9527785048
-0.02206348692
0.2176692815
0.8080827325
-0.01631435795
0.4995781761
0.1242876754
0.3235951161
0.1329837472
0.3182347084
0.6364883792
0.1385062944
0.3470075363
0.9156710458
-0.00260855447
0.3212689161
0.990955296
-0.0124381714
0.2405448305
0.8963528658
-0.007546046899
0.6105068809
0.129616126
0.2546702848
0.4957891516
-0.1139710577
0.3205067841
0.838674972
0.01115957422
0.3104458084
1.00652791
-0.005511637892
0.2448233633
0.9853791392
-0.02340382804
0.2717138287
0.7641621451
-0.1805457283
0.4448226648
-0.1731088357
0.30981142
0.1859777314
0.2661310763
0.6917826684
0.1905726474
0.285699851
0.9801392172
0.006819917916
0.2518578288
1.026864236
-0.007643074009
0.1719895763
0.850689322
-0.006658924026
0.512069766
0.1047424748
0.2090954612
0.6188920413
-0.136204834
0.2542873716
0.954428225
-0.01948091825
0.2380232445
1.048873863
-0.005745499849
0.1635580666
0.9150899577
0.01006454171
0.5568947607
0.1187330718
0.1774667672
0.5984518924
-0.1570266184
0.2225079976
0.9417899338
-0.03240293901
0.217542922
1.064603814
-0.01076487592
0.1629734262
0.9699106828
-0.0002512291922
0.6356409089
0.08422727784
0.1513324879
0.5942302529
-0.1471108484
0.1879414776
0.9414126642
-0.03623172035
0.186919648
1.083539654
-0.01791401096
0.1495829185
1.036196117
-0.02894870517
0.2299215671
0.7910510634
-0.2357488034
0.4461743016
-0.216252735
0.1288960515
0.5938479522
-0.1285137509
0.1579354054
0.944109159
-0.03173584882
0.1614908601
1.095496639
-0.01551243964
0.1401789267
1.069942271
-0.01243422011
0.09982775013
0.864122275
-0.03272003545
0.5108613076
0.03514074377
0.1073263218
0.5896282794
-0.1031066491
0.1291784134
0.9444920552
-0.02223498796
0.1347319496
1.100772895
-0.01082979199
0.1191964283
1.087346056
-0.001868263677
0.08193148164
0.9000948703
0.001292351046
0.5268253772
0.06596741159
0.08614881529
0.5825534369
-0.07907397287
0.1018518402
0.9435214167
-0.01473238636
0.1068438823
1.103315648
-0.007534794878
0.09725996077
1.096879077
5.08997964e-05
0.06918819318
0.9183511178
0.009815519919
0.5340285961
0.06198497395
0.06480183237
0.5762819593
-0.05853035475
0.07621653537
0.9430286405
-0.01092192675
0.08080135865
1.104540584
-0.005809759803
0.07714780945
1.101638369
-0.001105742364
0.057463259
0.9278149312
0.01022073699
0.5435938743
0.04789798059
0.04714079204
0.5752400702
-0.04609890272
0.05683278972
0.9435769264
-0.01024028339
0.06171472347
1.105223885
-0.005565234314
0.06159883407
1.103205405
-0.001451146417
0.04742795328
0.9318520955
0.01013371652
0.553397343
0.03762448449
0.03429801794
0.5764115283
-0.0354694758
0.0427929317
0.9442589536
-0.009176940653
0.04747639638
1.105358961
-0.004818540499
0.04843506392
1.10343043
-0.001183692553
0.03809399084
0.9340358095
0.008157359268
0.5629747299
0.02851660399
0.02498337397
0.5787086225
-0.02728046788
0.03253082267
0.9446343703
-0.007922865216
0.03622595671
1.105293268
-0.003629440707
0.03665988645
1.103257994
-0.0002614927085
0.02979528336
0.9352615649
0.005638847884
0.569511407
0.0232586064
0.01888299976
0.5807328048
-0.02090718175
0.02528981897
0.9447281677
-0.006500616227
0.02771951962
1.105187771
-0.002324202744
0.02749399893
1.103034264
0.0004492507694
0.02295953565
0.935992383
0.003803645451
0.5731569865
0.01931395633
0.01490749419
0.5819043147
-0.01607900375
0.02012408214
0.9444734438
-0.004961863802
0.02151811606
1.105033761
-0.001240024295
0.02098252467
1.10288103
0.0006888253904
0.01754231602
0.9366261221
0.002806469856
0.5749286473
0.01577065542
0.01198032454
0.5822858754
-0.01236188493
0.01614280452
0.943927179
-0.003616214851
0.01687313072
1.104844486
-0.0005410505836
0.01632363168
1.102836106
0.0005944231069
0.01341248907
0.9372770582
0.002260206811
0.575721496
0.01261964057
0.009616594879
0.5821580017
-0.009488720845
0.01287605684
0.9432964209
-0.00262870349
0.01322244736
1.104669555
-0.0001714592773
0.01279075758
1.102901772
0.0003660245065
0.0102672501
0.9379201773
0.001880388643
0.5762321736
0.009756572789
0.007648118904
0.5818010473
-0.007291164149
0.0101373708
0.9427462659
-0.001939096653
0.01027474992
1.104535795
-3.618846844e-06
0.009991081239
1.103022673
0.0001627683947
0.007875516019
0.9384762107
0.00155953215
0.5767330928
0.007374597013
0.006008995984
0.5814133084
-0.0056212568
0.007865251447
0.9423425696
-0.001452558769
0.007882033613
1.104427598
9.141568457e-05
0.007741064197
1.103124967
3.867524656e-05
0.006065615331
0.9388830158
0.001268644045
0.577209303
0.005589405392
0.004675747017
0.5810946105
-0.004357048752
0.006031957511
0.94208992
-0.001103560664
0.005980674852
1.104358984
0.0001198966194
0.005950743671
1.103181756
-2.685726136e-05
0.004688947019
0.9391371855
0.001007627264
0.5775899401
0.004308310093
0.003635136026
0.5808652844
-0.003405809569
0.004623109243
0.9419546639
-0.0008527167892
0.004475375019
1.104390699
0.0001160196763
0.004580168665
1.103135353
-5.839052203e-05
0.003644974515
0.9392804074
0.000791972512
0.5778563417
0.0033785732
0.002856861948
0.5807007972
-0.002692374464
0.003605095903
0.9418779959
-0.0006715656487
0.00353347521
1.104361287
0.0001010329661
0.003592187779
1.103143966
-6.73255828e-05
0.00287147902
0.9393718724
0.0006292440006
0.5780416259
0.002686194984
0.002286836698
0.5805676095
-0.002153648727
0.002889933627
0.9418135134
-0.0005386141468
0.002836800243
1.104328553
8.586756265e-05
0.002887615256
1.103153606
-6.045469142e-05
0.002301326986
0.9394480596
0.0005101013824
0.5781859626
0.002156990525
0.00185808454
0.5804464001
-0.001736874816
0.002367639445
0.9417414857
-0.0004375269766
0.002335431122
1.104291128
6.963344772e-05
0.002366906846
1.103173888
-5.175708048e-05
0.001868562885
0.9395273003
0.0004191035031
0.5783131215
0.001741404223
0.001516319362
0.5803335441
-0.001403463069
0.001951725193
0.9416626482
-0.0003565680648
0.001936907554
1.104250497
5.544883059e-05
0.001951187768
1.103202922
-4.331393047e-05
0.001522879892
0.9396103206
0.0003452878025
0.5784291986
0.00140680299
0.001232141453
0.5802322299
-0.001130827019
0.001599077931
0.9415852189
-0.0002895068965
0.001595011041
1.104210445
4.411881854e-05
0.001598750934
1.103234737
-3.555519714e-05
0.001235980109
0.939690189
0.0002829026385
0.578532008
0.001133170838
0.0009940011391
0.5801453467
-0.0009071176536
0.001297178441
0.9415157431
-0.0002337012799
0.001298124865
1.104174267
3.523218065e-05
0.001296798096
1.103265001
-2.893663863e-05
0.0009961470257
0.9397611062
0.0002297340873
0.5786193578
0.0009087974956
0.0007972845903
0.5800731316
-0.000725069229
0.001043712051
0.9414569403
-0.000187624466
0.0010463254
1.104143496
2.815758154e-05
0.001043073403
1.103291908
-2.365500662e-05
0.0007982344767
0.9398209261
0.0001850192127
0.5786914865
0.0007261058656
0.0006372445914
0.580014027
-0.0005781398444
0.0008362379478
0.9414080863
-0.000150139209
0.0008392540606
1.104118038
2.244227273e-05
0.0008353653287
1.103315364
-1.956698779e-05
0.0006377213514
0.9398704091
0.0001481612127
0.5787504351
0.000578772991
0.0005093972093
0.5799658366
-0.0004612065646
0.0006693755264
0.9413680162
-0.0001199079642
0.0006725306174
1.104097179
1.770400161e-05
0.0006686185371
1.103335676
-1.639936539e-05
0.0005093907037
0.9399113589
0.0001182782018
0.5787985278
0.0004612980886
0.0004090217969
0.5799257736
-0.0003689585454
0.0005402042393
0.9413332541
-9.642021881e-05
0.000543882128
1.10407981
1.369151743e-05
0.0005389925234
1.103354273
-1.370746574e-05
0.0004088723101
0.9399468106
9.466868492e-05
0.5788386783
0.0003687219393
0.0003343483718
0.5798905804
-0.0002991550589
0.0004465133572
0.941300154
-7.906467964e-05
0.0004528360296
1.104063554
9.933387732e-06
0.0004456708778
1.103372668
-1.122971943e-05
0.0003341247538
0.9399813491
7.700775392e-05
0.5788744676
0.0002983355906
0.0002881676072
0.5798536804
-0.0002512674376
0.0003972620989
0.9412597636
-6.870391362e-05
0.000408988684
1.104045737
6.090850813e-06
0.000394418231
1.103395527
-8.288286802e-06
0.0002869837754
0.9400231675
6.561620003e-05
0.578912052
0.0002493995655
0.0002745052734
0.5798058252
-0.0002266498925
0.0004010471883
0.9411992465
-6.602465501e-05
0.0004260795692
1.104019468
1.236237449e-06
0.0003980611278
1.103427977
-4.4319121e-06
0.000273817781
0.9400855598
6.185123731e-05
0.5789618316
0.000224038276
0.0002980261805
0.5797344732
-0.0002266740612
0.0004666762856
0.9411028035
-7.2206961e-05
0.0005105761399
1.1039797
-4.131656655e-06
0.0004589588636
1.103478829
7.65654669e-07
0.0002955718664
0.9401837948
6.515210978e-05
0.579035239
0.000222164572
0.0003477454851
0.5796318361
-0.0002451081845
0.0005730133475
0.9409614772
-8.394152497e-05
0.0006431257158
1.103920871
-1.128291036e-05
0.0005654011662
1.103551404
5.150102671e-06
0.0003464931403
0.9403286348
7.406808751e-05
0.579142569
0.0002391632202
0.0003934547396
0.5795013019
-0.0002629204614
0.0006701723095
0.9407817476
-9.698784097e-05
0.0007660187804
1.103844905
-1.988011896e-05
0.0006623915215
1.103648609
6.421905712e-06
0.0003939515699
0.9405170409
8.003401502e-05
0.579281135
0.0002553855983
0.0004006713997
0.5793637683
-0.0002631376302
0.0006929703919
0.9405941961
-0.0001047474167
0.0008737873178
1.103698782
-3.469354003e-05
0.0006962456464
1.103829589
-3.437958352e-06
0.0004055367199
0.9407321768
7.557314121e-05
0.5794340856
0.0002525862311
0.0003466747624
0.5792480348
-0.0002309411433
0.000606223755
0.9404394257
-0.0001047784518
0.0007134577888
1.10364089
-4.934256716e-05
0.0006241666295
1.103937718
-1.883758504e-05
0.0003632594921
0.9409382927
5.47912727e-05
0.5795786534
0.0002186917529
0.0002555671415
0.579174672
-0.0001822042813
0.0004522597788
0.9403432582
-0.0001005250264
0.0005366254899
1.10361985
-6.332538743e-05
0.0004742228881
1.104041235
-4.111496793e-05
0.0002794988812
0.9411136262
1.939063549e-05
0.5796991254
0.0001590269594
0.0001484635789
0.5791603766
-0.0001341681065
0.0002810985269
0.9403197302
-0.0001091069242
0.0003415913784
1.103651694
-9.233730035e-05
0.000310752196
1.104151484
-7.940939735e-05
0.0001964567368
0.9412605301
-3.260837836e-05
0.5798051141
9.046808561e-05
6.210781118e-05
0.5791868244
-8.855552094e-05
0.0001426735969
0.9403700991
-0.0001309345835
0.0001834062165
1.103747168
-0.000136205923
0.0001804169276
1.104286124
-0.0001316507625
0.0001299884129
0.9413991715
-8.821290793e-05
0.5798936055
4.149707483e-05
-8.05340721e-05
0.579402318
-0.0001349594739
-1.645292977e-06
0.9404928013
-0.0002015909857
7.453080159e-05
1.103887684
-0.0002166922938
0.0001410915411
1.104435971
-0.0002164079873
0.0001726107466
0.9415485176
-0.0001808652597
0.5801291277
-6.291141643e-05
-0.0001296740921
0.5794304692
0.000101522926
-2.850402922e-05
0.9404685699
-7.693856215e-05
2.046902446e-05
1.104063787
-0.00022507637
6.958668398e-05
1.104612803
-0.0002259495789
0.0001645783614
0.9415168818
-6.335575366e-05
0.5801557471
0.0001379589345
-0.001512438138
0.5809408623
2.045015355e-06
-0.0007678738862
0.9390584672
0.0006655384671
1.728419369e-05
1.103170311
0.0001083181435
0.0008008139925
1.10371807
0.0001112041322
0.001539204226
0.9400927243
0.0006857672189
0.5816489429
4.600843555e-05
-0.004313123338
0.5790173938
0.006236591738
-0.0005301370454
0.9304133237
0.004862157179
0.0001124201273
1.10206445
0.0004633043617
0.0007140947624
1.10262858
0.0004878151448
0.004453082833
0.9314333362
0.0049204001
0.5797259619
0.006376063939
0.1483067063
-0.05380973129
0.2179598841
0.2665605347
-0.005144118949
1.068151127
0.01571302154
0.000432504136
1.100846192
-0.004358365281
0.005873440879
1.101461647
-0.004274003417
-0.1479670327
1.069281623
0.0159921869
-0.05345732273
0.2670530454
0.2181632065
0.006414633345
0.1367763264
-0.0007947392886
0.2078472557
0.3791650463
0.302525201
-0.002964761683
0.03918216525
0.001166122586
0.2433599745
-0.02230931832
0.2602059988
0.3093878739
0.3154501738
-0.004000326742
0.2605452845
-0.02196131129
0.243363119
0.3154437397
0.309237264
0.2076525762
0.0005946434397
0.1365298146
0.3017979549
0.3793650897
-0.002091658451
0.04143287594
0.003593086522
0.1198059464
0.01337729333
-0.004601705158
0.001331050331
0.2381379939
0.008492635436
-0.0007833743923
-0.001110215164
0.2552752014
0.00716367266
0.003652519551
-0.00266555033
0.1944066199
0.01225898717
0.5044765619
0.01051362741
0.04949379194
-0.1248305079
-0.167216328
-0.2724371453
0.5020834103
0.003411515413
-0.001018363797
0.5058971278
0.001530262427
-0.00534397992
0.5079681975
0.002306550776
-0.004377620445
0.5070869663
0.003268822407
-0.002387591243
0.5035134678
0.003928207214
-0.0003547086818
0.4989290769
0.003513521183
0.001070869748
0.4954107116
0.002508930231
0.001009435092
0.4934723337
0.001592058749
0.0003463191734
0.4926240815
0.00101754785
-0.0001692956051
0.4922911996
0.0007636565729
-0.000430774689
0.4921304073
0.0007430609854
-0.000582268613
0.4919945294
0.0009015462514
-0.0007656683663
0.4918172515
0.001161889914
-0.0009846119691
0.4915697315
0.001482842318
-0.001235322247
0.4912412261
0.001869816364
-0.001541310985
0.4908214971
0.002344735947
-0.001925006923
0.4902918151
0.002934912464
-0.00240523045
0.4896246841
0.003671261293
-0.003004130177
0.4887843558
0.004589894566
-0.003749566268
0.4877255664
0.005734577893
-0.004675788401
0.4863906645
0.007158945631
-0.005824043729
0.4847058954
0.008928504837
-0.007243735734
0.4825749582
0.0111235548
-0.008992617497
0.4798761445
0.01384381809
-0.01114500429
0.4764299733
0.01722230995
-0.01377613875
0.4720299022
0.02144509483
-0.01704502363
0.466158094
0.02676595864
-0.02089415032
0.4579047079
0.03393436346
-0.02568097723
0.4445299113
0.04265640961
-0.02928161285
0.4237416087
0.0575863974
-0.03679809466
0.3619789249
0.07825648057
-0.01649379656
0.2023784193
0.1596005057
0.007202142212
0.1994073796
0.007062243571
0.01464308377
0.9383957776
0.1093632038
0.003249994295
-0.2197122667
-0.2928728859
-0.2355960018
-0.2449661588
-0.01572076296
-0.05156472942
-0.01254798534
0.01472227267
0.008065921191
-0.000816378595
0.9383180988
0.003949999431
0.006641306739
0.9445293392
0.00103157315
-0.003831298069
0.9499041101
0.001621459835
-0.005465968302
0.9486550238
0.005075922525
-0.00152028548
0.9410972946
0.006450441711
0.004376109916
0.9316349766
0.005661604533
0.007728920775
0.9247946121
0.003756177199
0.006597708516
0.9216360208
0.002266898227
0.003400623252
0.9205519953
0.001605769329
0.001070314966
0.9201676036
0.001306014402
9.5925184e-05
0.9199301674
0.001248901446
-0.0002478086454
0.9196765577
0.00135830233
-0.000361631619
0.9193887455
0.001620796668
-0.0004314381912
0.9190472474
0.002031640569
-0.0005282524874
0.9186286037
0.00256064858
-0.000659162531
0.91810483
0.003220966593
-0.0008273765428
0.9174455921
0.004040786678
-0.001036812795
0.9166140732
0.00506232729
-0.00129589588
0.9155643311
0.006338311439
-0.001617308036
0.9142384269
0.007931968918
-0.002016170104
0.9125624015
0.009920734822
-0.002510131444
0.9104409623
0.01240022095
-0.003119836115
0.9077502355
0.01548815203
-0.003868920341
0.904326816
0.01933001293
-0.004783038497
0.8999544962
0.02410544496
-0.005889307099
0.8943338195
0.03004983677
-0.007206849978
0.8870709705
0.03745612433
-0.008748180428
0.8774803965
0.04677473052
-0.01041819772
0.8647487772
0.05868810298
-0.01202212011
0.8464954712
0.0736201705
-0.01271045468
0.8200870183
0.09495576443
-0.01096091397
0.7611522301
0.1223093822
0.01488188676
0.6464314272
0.1367014696
0.1803977528
0.6037208209
0.08425567368
-0.04154506725
0.4774576665
0.1881345448
-0.06187139006
0.4219272999
0.1466922438