/*--------------------------------*- C++ -*----------------------------------*\
| =========                 |                                                 |
| \\      /  F ield         | OpenFOAM: The Open Source CFD Toolbox           |
|  \\    /   O peration     | Version:  4.1                                   |
|   \\  /    A nd           | Web:      www.OpenFOAM.org                      |
|    \\/     M anipulation  |                                                 |
\*---------------------------------------------------------------------------*/
FoamFile
{
    version     2.0;
    format      ascii;
    class       volVectorField;
    location    "5";
    object      U;
}
// * * * * * * * * * * * * * * * * * * * * * * * * * * * * * * * * * * * * * //

dimensions      [0 1 -1 0 0 0 0];

internalField   nonuniform List<vector> 
24850
(
(0.9993582182 0.005809052191 0.008545565559)
(1.028365296 0.004251503597 0.00432069552)
(1.027207743 0.004283400163 0.00109557925)
(1.016675848 0.01572772264 -0.00720070898)
(1.00839947 0.02582709238 -0.01420882479)
(1.006116206 0.02543537396 -0.01522643066)
(1.004622472 0.01626704428 -0.01036845379)
(1.004239934 0.005845478094 -0.003818184493)
(1.003580464 0.001265348242 -0.0005466393507)
(1.002706999 -4.378366464e-05 0.0004551487571)
(1.001911771 -0.0001302638336 0.0004712328699)
(1.001376526 0.0003125315979 0.0001150952774)
(1.00117335 0.0008337786246 -0.0002028181806)
(1.001024912 0.001336233813 -0.0004070509049)
(1.00079576 0.001837792609 -0.0005560013984)
(1.000457264 0.002366625913 -0.0007033605042)
(1.000008704 0.002980917426 -0.0008808485878)
(0.999439685 0.003736698626 -0.001103868194)
(0.9987210188 0.004682101458 -0.001383632387)
(0.9978105192 0.005866086165 -0.001733478505)
(0.9966546544 0.007347091051 -0.002170742724)
(0.9951851309 0.009198176847 -0.002717293237)
(0.9933143238 0.0115107262 -0.003400245593)
(0.9909270318 0.01439859154 -0.004253690457)
(0.9878778148 0.01800425868 -0.005318067886)
(0.9839450317 0.02250597671 -0.006651805306)
(0.978939014 0.02812761729 -0.008291747393)
(0.972095116 0.03519662156 -0.0104144264)
(0.964066722 0.04385124943 -0.01270220757)
(0.9486691562 0.05599209783 -0.015899349)
(0.9380433007 0.06944255805 -0.01550480898)
(0.9231573236 0.09354150719 -0.01463575559)
(0.9085062267 0.1149830179 -0.01590369612)
(0.9071193207 0.1218467001 -0.01806445106)
(1.004753462 0.001007602143 0.001927347535)
(1.003635915 0.001118345512 0.0002653476459)
(1.005866983 0.007007502369 -0.00152588499)
(1.023322963 0.003705785788 -0.005762694883)
(1.034092483 0.0005952933605 -0.007036249258)
(1.041545593 -0.0007606868597 -0.0008776192494)
(1.04262706 -0.001933543071 0.009860716384)
(1.035629593 -0.003085204778 0.01663773947)
(1.023188511 -0.002961377991 0.01503247752)
(1.012510531 -0.001809365507 0.008230709403)
(1.007285581 -0.0007102136634 0.003047687402)
(1.004975367 4.563671886e-05 0.0007004246151)
(1.003844178 0.0005800261556 -4.939460434e-05)
(1.003207347 0.0009893716336 -0.0001946516167)
(1.002808681 0.001359062017 -0.0001856972239)
(1.002521299 0.001797563692 -0.0001824633961)
(1.002284272 0.002320463079 -0.000213861201)
(1.002038605 0.002943742057 -0.0002703946795)
(1.00174757 0.003703330362 -0.0003436679761)
(1.001385708 0.0046456214 -0.0004330569867)
(1.000927461 0.005823205649 -0.0005428839927)
(1.000343086 0.007297156215 -0.0006792938388)
(0.9995949947 0.009141275299 -0.0008493547576)
(0.998634122 0.0114467524 -0.001061476669)
(0.9973965673 0.01432706996 -0.001325982211)
(0.9957977275 0.01792321615 -0.001655865189)
(0.993727378 0.02241201322 -0.002066400953)
(0.9910264969 0.02801042952 -0.002579034363)
(0.9875082186 0.03501094081 -0.003204699134)
(0.9827647167 0.04372424809 -0.003987175772)
(0.9766648249 0.05477242812 -0.004768028087)
(0.9672628429 0.06864093267 -0.005647440357)
(0.9584334909 0.0871396172 -0.005119029494)
(0.9458816213 0.1124993475 -0.00419805131)
(0.9426913636 0.1379109651 -0.00346802282)
(0.9139742061 0.1560861061 -0.001953127155)
(0.9107234845 0.1793389435 0.002322303859)
(0.8953624857 0.2054403073 -0.002426823081)
(0.8809448879 0.2355489588 -0.004095059427)
(0.8672912067 0.2446374285 -0.01096247587)
(1.00318348 0.0002766322486 -0.000111125758)
(1.002976029 0.001063128593 -0.0003901569955)
(1.010109239 0.001385013942 -0.002509276389)
(1.01928066 0.00116827278 -0.006485568181)
(1.031894998 0.002909227272 -0.005841969897)
(1.038746079 0.006474471906 0.003228094122)
(1.036009172 0.009576895724 0.0146800023)
(1.025797979 0.01014082782 0.01931724758)
(1.013914538 0.00799297798 0.01486138503)
(1.006972815 0.005086773677 0.007633504854)
(1.004360264 0.003056131853 0.002975889097)
(1.003508286 0.002007467951 0.0009957919702)
(1.003232371 0.00157077481 0.0003300397055)
(1.003114227 0.001458608658 0.0001239255336)
(1.002998065 0.001548703223 2.074495642e-05)
(1.002892213 0.001839405341 -3.380425791e-05)
(1.002792626 0.002285663145 -6.531768304e-05)
(1.002683617 0.002866038174 -9.022477291e-05)
(1.002554047 0.003595510563 -0.0001158650447)
(1.002390892 0.00451059072 -0.0001458637518)
(1.00217963 0.005660072395 -0.0001823609514)
(1.00190386 0.007104405507 -0.0002270774834)
(1.001542194 0.008918580799 -0.0002819738829)
(1.00106566 0.01119656573 -0.0003495244915)
(1.000435603 0.01405680055 -0.0004327558382)
(0.9996000025 0.01764864224 -0.0005355111557)
(0.9984894518 0.02216221212 -0.0006619293636)
(0.9970056826 0.02783768014 -0.0008184933928)
(0.9950189679 0.03499831541 -0.00100865799)
(0.9923099733 0.0440396903 -0.001233973012)
(0.9887007845 0.05564405052 -0.001441967336)
(0.9834564545 0.0704338914 -0.001649883475)
(0.9771022735 0.0903226341 -0.001505001806)
(0.9694207648 0.114412432 -0.001051396658)
(0.96228392 0.1428003987 -0.0006115519288)
(0.9519285367 0.1737269174 0.0003415908396)
(0.9362273624 0.2045643089 0.002714008764)
(0.9187112461 0.2309635188 0.003381542704)
(0.8959666909 0.2693753527 0.0006880210857)
(0.8777374684 0.2855351451 -0.003154097868)
(0.8528690141 0.3079826998 -0.000986711497)
(0.8376386265 0.3285133602 -0.004768725655)
(0.8386372775 0.3392881299 -0.008848932664)
(1.003245342 -7.178407017e-05 3.294298478e-06)
(1.003151437 -0.0009579818775 -0.0003443317854)
(1.010255443 -0.001286567429 -0.002470169876)
(1.019378191 -0.001037610318 -0.0064638974)
(1.031904364 -0.002670740473 -0.005848295464)
(1.03869174 -0.006058648792 0.003197991064)
(1.035962893 -0.008979853059 0.01463565087)
(1.025818853 -0.00940518262 0.01927308697)
(1.014010144 -0.007115855527 0.01484853999)
(1.007108616 -0.004042327568 0.007661053651)
(1.004515551 -0.001810606368 0.003036445325)
(1.003676845 -0.0005009048285 0.001062853058)
(1.003419506 0.0002905414758 0.0003729486937)
(1.003338843 0.0008426579537 0.0001528674753)
(1.00331528 0.001305528603 9.306474891e-05)
(1.0033174 0.001766178198 8.581171078e-05)
(1.003332839 0.002271054999 9.558155533e-05)
(1.003361531 0.002869750495 0.0001135584448)
(1.003405327 0.003608104422 0.0001394762257)
(1.003461087 0.004532157615 0.0001742690491)
(1.00352548 0.005693229593 0.0002194747074)
(1.003596663 0.007153079284 0.0002775590431)
(1.003671878 0.00898856089 0.0003518528489)
(1.003746061 0.01129636421 0.0004466066554)
(1.003811341 0.01419863008 0.000567205179)
(1.003856239 0.0178498092 0.0007203915487)
(1.003864444 0.02244703082 0.0009143733136)
(1.003816114 0.02824128487 0.001158674653)
(1.003686337 0.03556975161 0.001461698495)
(1.003474216 0.04486659265 0.001828703071)
(1.003153253 0.0568477124 0.002226369251)
(1.002938187 0.07228224961 0.002573014458)
(1.002180096 0.0933271318 0.002538167083)
(0.9998277326 0.119243033 0.001970377147)
(0.9935170965 0.1482530671 0.001172967831)
(0.985163494 0.1789481066 0.001396442096)
(0.9719100978 0.2109431089 0.002048133001)
(0.9544601968 0.2407969062 0.002202990665)
(0.9268282402 0.2780569568 -0.0002321053182)
(0.9122636476 0.3044846427 -0.002429637356)
(0.8722932373 0.3355908846 -0.001578348428)
(0.8543106819 0.3625835457 -2.387372994e-05)
(0.8165769216 0.3713703756 -6.806106808e-05)
(0.8066799211 0.3970038885 0.001728275911)
(0.8027593089 0.4061866476 -0.003665123709)
(1.004297588 -0.001137859451 0.0002993938411)
(1.003517217 -0.0009820604913 0.0002688969957)
(1.005731216 -0.006811409871 -0.001469258086)
(1.023209634 -0.003402399373 -0.005623986239)
(1.034050435 -0.0001594209734 -0.006795417734)
(1.041550018 0.001329518188 -0.0005730939459)
(1.042658332 0.002615595243 0.01014235741)
(1.035697646 0.003857024309 0.01684338875)
(1.023332018 0.003858957737 0.01517438989)
(1.012759443 0.002881717767 0.008346723723)
(1.007629244 0.001993422148 0.003171375488)
(1.005427979 0.001528091982 0.0008643632177)
(1.004454128 0.001376587564 0.000170005068)
(1.004010193 0.001408842959 5.76133932e-05)
(1.003788164 0.001597015572 9.459572941e-05)
(1.003733906 0.00194444961 0.0001648016336)
(1.003801986 0.00241848837 0.0002317248568)
(1.003942797 0.003024345153 0.0002965779777)
(1.004140772 0.003790655018 0.0003710494606)
(1.004394303 0.004758121973 0.0004647376581)
(1.004708389 0.005978665068 0.000584356117)
(1.005093527 0.007517489195 0.0007363889949)
(1.005563052 0.009456652049 0.0009288719381)
(1.006132209 0.01190005853 0.001172166045)
(1.006818587 0.01497961709 0.001479375659)
(1.007643278 0.01886280967 0.001866856545)
(1.008630907 0.02376409681 0.002354198675)
(1.009820687 0.02995669742 0.002965233248)
(1.011258799 0.03780658058 0.003718662864)
(1.013117089 0.04777168941 0.004631451168)
(1.01548615 0.06061941652 0.00558474459)
(1.019473898 0.07722373637 0.006394801701)
(1.023048086 0.1006303927 0.005529739327)
(1.023396423 0.1311602611 0.003308860007)
(1.018269033 0.1653975843 0.0008418495581)
(1.010011983 0.2003812628 -0.0003708510323)
(1.000763882 0.2365384482 -0.001251249055)
(0.9883416408 0.2751982667 -0.002768992005)
(0.9640818924 0.314168689 -0.004076092455)
(0.9505529597 0.3410051014 -0.003737747229)
(0.9247546415 0.3683911212 -0.00323619532)
(0.8930777812 0.3971601328 -0.0016767168)
(0.8609523736 0.4144888291 -0.002569742897)
(0.8202361603 0.4360708318 -0.0007511825927)
(0.7998870053 0.4445104065 0.001453317437)
(0.7743819859 0.44930518 0.009099068603)
(0.9988633975 -0.005672613171 0.00853799159)
(1.028052526 -0.004097867018 0.004354865537)
(1.026928513 -0.00411864739 0.001129531499)
(1.016572878 -0.01545827 -0.007169166374)
(1.008530006 -0.02539985296 -0.01414287038)
(1.006386738 -0.02490520494 -0.01512347257)
(1.005066148 -0.01559479677 -0.01022646308)
(1.004818072 -0.004970843655 -0.003592239213)
(1.004245376 -0.0001772595983 -0.0002199935876)
(1.003475333 0.00132326546 0.0008371302233)
(1.002952686 0.001622357689 0.0008946022873)
(1.002761724 0.00160493176 0.0007005480834)
(1.002838518 0.001589689807 0.0005437970751)
(1.003078434 0.001710763288 0.0005071610352)
(1.003377951 0.002002649871 0.000582854748)
(1.003715704 0.002460008511 0.0007266021191)
(1.004114917 0.003077889467 0.0009168713831)
(1.004603029 0.003869351552 0.001154764345)
(1.00520675 0.004870261367 0.001453379051)
(1.005954468 0.006135009212 0.001830617639)
(1.006878856 0.007734362329 0.002307866667)
(1.008019339 0.009758518903 0.002911625415)
(1.009423951 0.01232317489 0.003675556274)
(1.011152643 0.01557751564 0.004642707957)
(1.01327809 0.01971577236 0.005867266491)
(1.015908554 0.0249905702 0.007420379433)
(1.019156361 0.03174217952 0.009380874535)
(1.023408447 0.04040506134 0.01187698994)
(1.028763205 0.05165294142 0.01484016898)
(1.03851128 0.06627604207 0.01830201846)
(1.048560291 0.0865931358 0.01839103909)
(1.052429408 0.1136135273 0.01495625866)
(1.045324324 0.1456918815 0.01068074369)
(1.03455314 0.1799098349 0.009633355946)
(1.018784975 0.2206718661 0.008239934807)
(1.030151759 0.2606692541 -0.001010020409)
(0.9757886218 0.3128669592 -0.006570009413)
(0.9589807565 0.3563359591 -0.008544216455)
(0.9440939826 0.3930670291 -0.006959029378)
(0.9255567172 0.4258037056 -0.00430759092)
(0.9052909828 0.4484267786 -0.002329709847)
(0.8568926575 0.4731498066 -0.001287558144)
(0.8320423044 0.4897143534 -0.0009928518925)
(0.7662519539 0.4841497281 0.008888384016)
(0.7781995818 0.5215549678 0.006474190273)
(0.7099327108 0.4908211669 -0.002516543647)
(1.000954147 0.3393239323 0.01333062426)
(0.9744081814 0.3545478128 -0.002115439195)
(0.9458594064 0.407892142 -0.007915357213)
(0.9208373584 0.4473595862 -0.008346379585)
(0.9080462654 0.482963987 -0.003787658799)
(0.888402279 0.5066077329 -0.001121977745)
(0.8629734416 0.5267863087 -0.000939523272)
(0.8154001733 0.5403453371 0.004089557649)
(0.7626369273 0.5459276157 0.005213188933)
(0.7660968235 0.5701889884 0.004576154827)
(0.6557951759 0.5119779758 0.008252402936)
(0.9663835702 0.4291686461 0.0145790753)
(0.9349993068 0.4438868971 -0.0008225479393)
(0.9004452064 0.496473617 -0.00725104328)
(0.8792895194 0.5325597861 -0.007048254807)
(0.8666207677 0.5686177583 -0.004101877281)
(0.8450047832 0.5805408475 -0.0004009549023)
(0.8012200821 0.5935873001 0.002513046266)
(0.7466571003 0.5922016616 0.002225223814)
(0.7305502479 0.6062916576 0.007699929207)
(0.6365860548 0.5478849851 0.009563415728)
(0.9134245902 0.5173152706 0.008348245858)
(0.8861372534 0.5305914624 -0.003863574132)
(0.8438477643 0.5762719066 -0.01072426347)
(0.8394993186 0.6181453817 -0.008022907176)
(0.8224425563 0.6293796129 -0.004096711768)
(0.7837117648 0.6410354037 -0.002266234721)
(0.7270859881 0.6351122289 0.004104778371)
(0.6965596295 0.631023601 0.01106722715)
(0.6192608156 0.5811012871 0.01329022147)
(0.8432548345 0.5964826272 -0.0024584115)
(0.8186053835 0.625315817 -0.007622902915)
(0.8046869152 0.6625019841 -0.009386922837)
(0.7910364371 0.6838726953 -0.006522780277)
(0.7580180069 0.6848945739 -0.001630984104)
(0.7060126004 0.6711507041 0.008850294566)
(0.6473983183 0.6380572887 0.01430142052)
(0.5876528002 0.6034079272 0.01439594086)
(0.8106111974 0.6405571712 0.002009339143)
(0.7814580022 0.649636979 -0.006917650215)
(0.7429218836 0.6879619673 -0.01193968596)
(0.740224838 0.7274069101 -0.008249660477)
(0.7126274873 0.7241427622 -0.0002597746859)
(0.6696392217 0.7063456257 0.01018205503)
(0.5873807421 0.639167247 0.0137248054)
(0.5586774182 0.6345369623 0.01275064074)
(0.7182590439 0.6927220484 -0.007317876834)
(0.7001263764 0.7324535655 -0.01199962693)
(0.6855981004 0.7550653089 -0.009052682225)
(0.6622200216 0.7476990685 0.0007761335525)
(0.6060566628 0.7114945392 0.009395024009)
(0.5307024925 0.647181167 0.01261753107)
(0.5038929924 0.6520585204 0.02017553038)
(0.6937007622 0.7846620922 0.0003825730829)
(0.6628458157 0.7931741591 -0.008491055413)
(0.6427604231 0.7882585342 -0.006401782588)
(0.6054852769 0.7755704782 0.001757716585)
(0.5363100353 0.7213683649 0.006451439422)
(0.5005899975 0.6773657276 0.00400774014)
(0.6620185409 0.8072758537 -0.008802245055)
(0.6190857442 0.8150269442 -0.01510067668)
(0.6027204497 0.8411113402 -0.01537311776)
(0.5816967876 0.8324609033 -0.009098555121)
(0.5287669078 0.8058751803 -0.0007391779831)
(0.4539067653 0.7350207647 -0.006999925111)
(0.435218163 0.7657089899 -0.00625335074)
(0.5910360813 0.8199112481 -0.007814400242)
(0.5610799552 0.8562863381 -0.01586338643)
(0.5444948648 0.8834391647 -0.01749966494)
(0.5116773812 0.8728848068 -0.008283510203)
(0.4518274168 0.8350209518 -0.008772242335)
(0.4042983317 0.8065147103 -0.008827453507)
(0.3915510498 0.8459758117 0.0005166332043)
(0.5460035916 0.9189420291 0.005557096348)
(0.5196941507 0.9502558681 -0.01244357486)
(0.4943482339 0.9473150246 -0.01123821126)
(0.4551265794 0.9443566903 -0.01023751604)
(0.4088750744 0.9098570625 -0.009470434192)
(0.3951499374 0.892084586 -0.01741499078)
(0.5243170346 0.9583851317 -0.01092102015)
(0.4794417927 0.9855611664 -0.01873776693)
(0.4673579022 1.010904946 -0.01780700445)
(0.4440176508 1.009153147 -0.01277128607)
(0.4012389972 0.9910614246 -0.006105797579)
(0.3581851917 0.9325332243 -0.009568306617)
(0.3486275472 0.9678506867 0.0033447945)
(0.4725184406 1.047950799 0.004560451069)
(0.45302621 1.075881685 -0.01263950761)
(0.435795827 1.074173138 -0.01207059632)
(0.3998619914 1.060911496 -0.004160143085)
(0.3615599719 1.028106569 -0.002746823783)
(0.3427079514 1.005275293 -0.004692206782)
(0.4523245396 1.086588662 -0.0160164203)
(0.4077454565 1.097233489 -0.0227394401)
(0.403589185 1.127326431 -0.01678892671)
(0.3859518522 1.11730713 -0.006254818363)
(0.3561725483 1.074373399 0.00193544729)
(0.3507870103 1.047337746 -0.006609534424)
(0.3974335302 1.143064713 -0.002949888194)
(0.3851144226 1.167929968 -0.01300070688)
(0.368302622 1.156329169 -0.007712123603)
(0.3319482431 1.133807891 0.005553064425)
(0.2963614737 1.062117399 0.006617300736)
(0.2856575711 1.080984734 0.01263615139)
(0.3758530526 1.168333694 -0.0220450617)
(0.3348481176 1.172570923 -0.02467121443)
(0.3305244181 1.191478804 -0.01092228434)
(0.3163018311 1.173356098 0.004425377708)
(0.2818089888 1.110625769 0.01114873937)
(0.269774882 1.109795391 0.007903055151)
(0.3169261823 1.209323992 -0.007788724029)
(0.3028542945 1.210327428 -0.01125192421)
(0.2933534886 1.202131843 0.002509336463)
(0.2620039071 1.158330379 0.01467436927)
(0.2472073063 1.097998651 0.009703641335)
(0.2959238436 1.250380672 -0.01175983883)
(0.2613037625 1.226628683 -0.01584612371)
(0.2584772662 1.220472809 -0.002337603907)
(0.243373119 1.181145401 0.01464774781)
(0.2429602096 1.136920673 0.006675637254)
(0.2610056481 1.262744976 -0.01512479143)
(0.2187923363 1.238200429 -0.01994095657)
(0.2162066145 1.230651818 -0.007927488934)
(0.2008272173 1.204831 0.01499937827)
(0.1780963605 1.116247097 0.01590437912)
(0.1656789322 1.131352624 0.02724818141)
(0.228068456 1.274047403 -0.01656219386)
(0.1829788454 1.247644602 -0.02218931332)
(0.1824648064 1.238763924 -0.011593282)
(0.1749783421 1.217993906 0.01418872164)
(0.1519272414 1.160233292 0.01992195156)
(0.1432988324 1.151043795 0.02503506804)
(0.1943679555 1.279434416 -0.02076618443)
(0.1469358832 1.25543163 -0.02557046458)
(0.1503699878 1.245669269 -0.01442894255)
(0.1473454969 1.230464272 0.01053986412)
(0.1258748774 1.192917835 0.02098053091)
(0.1211131368 1.145007813 0.02574156414)
(0.1587094497 1.271457245 -0.02676725376)
(0.1115938066 1.258012819 -0.0290074635)
(0.1205359067 1.249565401 -0.01564244283)
(0.1168963724 1.238735176 0.005466057161)
(0.1047886382 1.211626717 0.02238659076)
(0.1046253503 1.143600834 0.02813228135)
(0.120415547 1.252174468 -0.03069919673)
(0.07907729312 1.255268885 -0.02904315175)
(0.09278098932 1.250527688 -0.01447657578)
(0.08850387848 1.244089125 0.001364210187)
(0.08592952925 1.225581422 0.02562477805)
(0.08735074042 1.156066148 0.03181089531)
(0.08733685878 1.238624318 -0.02747271309)
(0.05669333058 1.25250904 -0.02396194495)
(0.07130527382 1.250135299 -0.01116936455)
(0.06771955046 1.246829562 -0.0008008219779)
(0.07156179491 1.233775431 0.02686213852)
(0.07232895817 1.178465212 0.02997950399)
(0.06293981793 1.237250517 -0.02173740931)
(0.04147378806 1.252073427 -0.01680047438)
(0.05476347251 1.249769265 -0.007304662423)
(0.05220557549 1.247451867 -0.0008983867646)
(0.05731520515 1.237888677 0.02390711026)
(0.05858262571 1.202889476 0.02438125645)
(0.04444568282 1.242598961 -0.01609032898)
(0.03154044952 1.253065156 -0.01089222202)
(0.04168730548 1.249678507 -0.004173397364)
(0.03978707824 1.247037966 0.0003174149901)
(0.04315308062 1.239516681 0.01713455915)
(0.04714127294 1.219619987 0.01832312326)
(0.03216162451 1.248328216 -0.01180539386)
(0.02519706544 1.253716123 -0.0071136932)
(0.03184344005 1.24960423 -0.002177468301)
(0.03032089752 1.246581299 0.001470982571)
(0.03200396154 1.240248414 0.01009433922)
(0.03678380389 1.229662074 0.01254806631)
(0.02442111174 1.251802449 -0.008896071668)
(0.02077207128 1.253561274 -0.00486800158)
(0.02470934184 1.249404511 -0.001081587584)
(0.02345332 1.246294289 0.001838111709)
(0.02420437036 1.240964427 0.005219640857)
(0.02782930516 1.234783307 0.008183174735)
(0.01906703045 1.253220621 -0.006827132678)
(0.01722290439 1.252851394 -0.003511921332)
(0.01939068689 1.2491297 -0.0005365931685)
(0.01842098094 1.246138903 0.001540737283)
(0.01876739193 1.241802534 0.002688837937)
(0.02085196794 1.237062383 0.005563069528)
(0.01501216081 1.253260895 -0.005225157809)
(0.01418336367 1.251937071 -0.002632796156)
(0.01524471188 1.248871315 -0.0002778432001)
(0.01459101935 1.246137688 0.001012589653)
(0.01474601801 1.242697258 0.00172249463)
(0.01571855726 1.238239707 0.004113610572)
(0.01185435943 1.252536086 -0.003957596927)
(0.01154644733 1.251048653 -0.001994176894)
(0.01197871989 1.248658627 -0.0001463525554)
(0.01159060137 1.246274934 0.0005791427461)
(0.01166642098 1.243573517 0.001480433693)
(0.01202535014 1.239340269 0.003212930054)
(0.009378070371 1.251510612 -0.002989064023)
(0.009305774186 1.25027404 -0.001513098025)
(0.009425659308 1.248464224 -8.06705059e-05)
(0.009208359833 1.246459672 0.000326816224)
(0.009288889695 1.244351439 0.001374343923)
(0.009366452732 1.240578808 0.002557213781)
(0.007430305531 1.250484783 -0.002280858641)
(0.007455309219 1.249637522 -0.001162712377)
(0.007433754594 1.248268736 -4.782863718e-05)
(0.007315904207 1.246620533 0.0002059885934)
(0.00742151188 1.244985796 0.001194073132)
(0.00740358138 1.241761166 0.002047869005)
(0.005896133653 1.249607199 -0.00176989867)
(0.005953736773 1.249138349 -0.0009119426609)
(0.005878892944 1.248103196 -2.925410511e-05)
(0.005817740848 1.246745345 0.0001487079502)
(0.005932638462 1.245483125 0.000966394435)
(0.005890116986 1.242734607 0.001640743156)
(0.004682051326 1.248909384 -0.001390659724)
(0.004743545003 1.248756227 -0.0007259899892)
(0.004656004959 1.247968589 -1.789285016e-05)
(0.004633284595 1.246861021 0.0001135378665)
(0.004744382313 1.245870611 0.0007590335389)
(0.00468801513 1.243482023 0.0013121364)
(0.003718592145 1.248365705 -0.001098554172)
(0.003777830979 1.24846199 -0.000581686286)
(0.003693167617 1.247863541 -1.292640166e-05)
(0.00368808195 1.246957601 8.391434869e-05)
(0.003787997674 1.246176485 0.0005963167326)
(0.003725120767 1.244051619 0.001047700387)
(0.002953907812 1.247938206 -0.0008690176682)
(0.003008966106 1.24822995 -0.0004663645925)
(0.002932740899 1.247775154 -1.142537384e-05)
(0.002933701198 1.247035887 5.888640302e-05)
(0.003018388934 1.246416866 0.0004729546692)
(0.002956735 1.244493607 0.0008359201549)
(0.002347328627 1.247597345 -0.0006878049958)
(0.002396394069 1.248044916 -0.0003734321435)
(0.002330236741 1.247699344 -1.057999713e-05)
(0.002333156885 1.247098029 4.039145055e-05)
(0.002402877231 1.246604747 0.0003776566305)
(0.002347221213 1.244842047 0.0006668652228)
(0.001866278709 1.247324101 -0.0005448029496)
(0.001908646017 1.247898322 -0.0002987583539)
(0.001852499274 1.247636437 -9.381870351e-06)
(0.001855712119 1.247148411 2.810598305e-05)
(0.001912738723 1.24675209 0.0003021459814)
(0.001864849526 1.245118554 0.0005319685657)
(0.001484269387 1.247105042 -0.000431833673)
(0.001520748172 1.247782975 -0.0002389709355)
(0.001474041183 1.247585807 -7.986452871e-06)
(0.001476448404 1.247190032 2.017822118e-05)
(0.001523079454 1.24686825 0.0002415378918)
(0.001482585227 1.245338496 0.0004241287874)
(0.001181050658 1.246929694 -0.0003425320693)
(0.001212275925 1.247691991 -0.0001910096723)
(0.001173853133 1.247545328 -6.678183356e-06)
(0.001175300401 1.247224573 1.482601501e-05)
(0.00121321406 1.246960262 0.0001927581424)
(0.001179191772 1.245513904 0.0003378114562)
(0.0009393112257 1.246788279 -0.0002716454231)
(0.0009668778825 1.247619535 -0.0001525296217)
(0.000935913809 1.247512968 -5.5956286e-06)
(0.0009362902052 1.247253417 1.094819945e-05)
(0.0009670125566 1.247033504 0.0001536004522)
(0.0009381042264 1.245654592 0.000268825777)
(0.0007481565091 1.246674942 -0.0002157869091)
(0.0007709627067 1.247561304 -0.0001215371547)
(0.0007457215412 1.24748694 -4.786121024e-06)
(0.0007461202162 1.247277751 7.945379226e-06)
(0.0007706841065 1.247092406 0.0001221657688)
(0.0007466841124 1.245767863 0.0002138572936)
(0.0005951118468 1.246583026 -0.0001714610203)
(0.000615501498 1.247514906 -9.7070003e-05)
(0.0005951476034 1.24746657 -4.260520717e-06)
(0.0005946928556 1.247298455 5.603537228e-06)
(0.0006143940959 1.247139927 9.706777658e-05)
(0.0005944277852 1.245859277 0.0001702279724)
(0.0004745412944 1.246510545 -0.0001368426658)
(0.0004898353383 1.247477491 -7.758325023e-05)
(0.0004736947009 1.24745062 -4.150278909e-06)
(0.0004733932257 1.247316119 3.609004792e-06)
(0.0004894958217 1.247178345 7.708890057e-05)
(0.0004730620867 1.245932857 0.0001357179752)
(0.0003775212305 1.246453225 -0.0001098540974)
(0.0003920891047 1.247449313 -6.304404266e-05)
(0.0003771013118 1.247438901 -4.460068383e-06)
(0.0003763650708 1.247331181 1.773450416e-06)
(0.0003879394205 1.247209874 6.107058289e-05)
(0.0003764384891 1.245991227 0.0001085572105)
(0.0003005852905 1.246409999 -8.906466086e-05)
(0.0003101878402 1.247426547 -5.159916404e-05)
(0.0003009413135 1.247430639 -5.485022761e-06)
(0.0002977620755 1.247344048 -4.074276153e-07)
(0.0003088114563 1.247234481 4.879328145e-05)
(0.0002979815114 1.246037952 8.739686961e-05)
(0.0002361180015 1.246376153 -7.335320906e-05)
(0.0002493013207 1.247410881 -4.406152689e-05)
(0.0002384790059 1.247424505 -7.399452364e-06)
(0.0002344755037 1.247354462 -2.9756376e-06)
(0.0002392935451 1.247256919 3.811512562e-05)
(0.0002348404757 1.24607537 7.09918269e-05)
(0.0001867006523 1.246354003 -6.228325219e-05)
(0.0001955588556 1.247397919 -3.789102675e-05)
(0.0001905896788 1.24742002 -9.936775881e-06)
(0.0001826403928 1.247363463 -5.732621747e-06)
(0.0001896098832 1.247273627 3.046596493e-05)
(0.0001840671502 1.246106781 5.886524569e-05)
(0.0001398632131 1.24633247 -5.293748208e-05)
(0.0001546858021 1.247391206 -3.379041203e-05)
(0.0001505272439 1.247415699 -1.237118309e-05)
(0.0001431369849 1.247366255 -8.314966449e-06)
(0.0001446047578 1.247292185 2.265403165e-05)
(0.0001443886199 1.246136388 4.902427821e-05)
(0.0001066024902 1.246325924 -4.658023271e-05)
(0.0001162956032 1.247390157 -3.063852591e-05)
(0.0001180740346 1.247411855 -1.265492358e-05)
(0.0001136210748 1.247380263 -7.805832096e-06)
(0.0001184584918 1.247310146 1.683549327e-05)
(0.0001145705974 1.246170332 4.09616543e-05)
(7.118638967e-05 1.246321596 -3.891839036e-05)
(8.347349865e-05 1.247399635 -2.954973103e-05)
(8.713208433e-05 1.247430484 -1.248008009e-05)
(9.610402455e-05 1.247400836 -7.464543687e-06)
(0.0001033332838 1.247335348 9.948121714e-06)
(9.769009649e-05 1.246199497 3.466704231e-05)
(5.334587539e-05 1.246349414 -3.463334083e-05)
(5.906525971e-05 1.247423165 -3.133972741e-05)
(6.613385031e-05 1.247459784 -1.688690412e-05)
(8.372735137e-05 1.247436304 -1.271176027e-05)
(9.363971173e-05 1.247372569 3.147698766e-07)
(8.418146209e-05 1.246250465 2.681405271e-05)
(2.636626415e-05 1.24638425 -3.201229519e-05)
(3.30272935e-05 1.247461891 -4.142780923e-05)
(4.722408165e-05 1.247497763 -3.048028105e-05)
(7.780470159e-05 1.24747921 -2.728473774e-05)
(9.465693053e-05 1.24742252 -1.723651638e-05)
(8.760193392e-05 1.246307576 1.69654436e-05)
(1.196649913e-05 1.246534029 -2.791539222e-05)
(5.02473899e-06 1.247542755 -5.453612149e-05)
(3.229377819e-05 1.247564882 -5.035764751e-05)
(7.553136557e-05 1.247549762 -4.877783541e-05)
(0.000102767647 1.247515199 -3.636514547e-05)
(8.208148462e-05 1.246477672 1.002564992e-05)
(-0.0001049563515 1.246591288 -0.0001024772224)
(-0.000111679736 1.247638979 -0.0001305886251)
(-2.576150786e-05 1.247638879 -0.0001182905042)
(0.0001130532866 1.247626617 -0.0001158391562)
(0.0002030072419 1.247620591 -0.0001170363013)
(0.0001805087344 1.246553132 -7.541439251e-05)
(-0.0001924659417 1.247912071 -1.14554112e-05)
(-0.000151952906 1.24800546 -0.0001699382065)
(-6.862192185e-05 1.247802962 -0.0001890615454)
(0.0001474308599 1.247789135 -0.0001892642013)
(0.0002326701117 1.247995267 -0.0001581961497)
(0.0002536960529 1.247888255 9.357987369e-06)
(-0.0008224996427 1.246803079 -0.001446287576)
(-0.001299709899 1.247827029 -0.0007812542356)
(-0.0002402111668 1.247967692 -0.0003765611916)
(0.0003012253987 1.247952147 -0.0003785769456)
(0.001363415111 1.247815165 -0.0007735975232)
(0.0008729074573 1.246803631 -0.001429251944)
(-0.001949553478 1.262240719 -0.0001093809095)
(-0.001537717005 1.249204651 -0.0008314918007)
(-0.0002637412879 1.247648836 -0.0008730400985)
(0.0002932161081 1.247640373 -0.0008691952939)
(0.001592932219 1.249220929 -0.0008353306408)
(0.002000585932 1.262211304 -8.949721808e-05)
(-0.005551551467 1.239811946 -0.0157143961)
(-0.007342898283 1.246329836 -0.003664874255)
(6.625922089e-05 1.248326666 -0.001160669683)
(-5.615888434e-05 1.248287389 -0.001160911952)
(0.007377831703 1.246268411 -0.003657299598)
(0.005614913907 1.239849718 -0.01567868881)
(-0.00229345065 1.24028211 -0.003977880078)
(0.001761937 1.245420705 -0.001367625231)
(-0.001795671864 1.245482418 -0.00135267866)
(0.002295349921 1.240205175 -0.003947943353)
(-0.001293514531 1.240140434 -0.003091233711)
(0.00178117589 1.240412008 -0.0004326948705)
(-0.0009758414274 1.24054555 -0.0005386870804)
(0.0009607865296 1.239816598 -0.002675346926)
(1.007181293 0.007127267106 0.002645929852)
(1.020480732 0.005535812962 -0.001061357637)
(1.02740927 0.003989474813 -0.00891966611)
(1.031996518 0.004105349865 -0.01416909412)
(1.032806331 0.004767205197 -0.01424312777)
(1.028764795 0.005690141796 -0.01010485497)
(1.019252973 0.005120452015 -0.003924269576)
(1.010039325 0.003383303496 -0.0002234746389)
(1.004753538 0.001839980611 0.0004901180584)
(1.002284565 0.000930144444 0.0002252087472)
(1.001325845 0.0005884118244 -8.406265308e-05)
(1.000925555 0.0005984667345 -0.0003051613817)
(1.000654258 0.0008293153343 -0.0005137833706)
(1.000365287 0.001148471249 -0.0006963194833)
(0.9999421337 0.001496899528 -0.0008731727906)
(0.9993566832 0.001891533262 -0.001082908159)
(0.9986008151 0.002368382258 -0.001350361377)
(0.997645573 0.002961388797 -0.001688831019)
(0.9964423736 0.003702686517 -0.002112227331)
(0.994927511 0.004628136048 -0.002639808704)
(0.9930205971 0.005781402703 -0.003296686521)
(0.9906202069 0.007216701812 -0.00411397194)
(0.9875974818 0.009001093039 -0.005129934042)
(0.9837892438 0.01121713244 -0.006390464743)