/*--------------------------------*- C++ -*----------------------------------*\
| =========                 |                                                 |
| \\      /  F ield         | OpenFOAM: The Open Source CFD Toolbox           |
|  \\    /   O peration     | Version:  4.1                                   |
|   \\  /    A nd           | Web:      www.OpenFOAM.org                      |
|    \\/     M anipulation  |                                                 |
\*---------------------------------------------------------------------------*/
FoamFile
{
    version     2.0;
    format      ascii;
    class       volScalarField;
    location    "0";
    object      ccz;
}
// * * * * * * * * * * * * * * * * * * * * * * * * * * * * * * * * * * * * * //

dimensions      [0 1 0 0 0 0 0];

internalField   nonuniform List<scalar> 
24850
(
-7.376116551
-7.367527032
-7.365947109
-7.365603124
-7.365554073
-7.365551768
-7.365556542
-7.365560957
-7.365563845
-7.36556549
-7.365566371
-7.365566838
-7.36556709
-7.365567232
-7.365567319
-7.365567382
-7.365567445
-7.365567529
-7.365567658
-7.365567869
-7.365568235
-7.365568935
-7.36557045
-7.365573969
-7.365582094
-7.365599509
-7.36563238
-7.365683381
-7.365734678
-7.365665945
-7.361714301
-7.352316775
-7.345560427
-7.392203178
-7.706655867
-7.456782118
-7.45159969
-7.44263673
-7.441944527
-7.441728867
-7.441701551
-7.441717252
-7.441732973
-7.441743487
-7.441749777
-7.441753367
-7.441755378
-7.441756502
-7.441757135
-7.441757502
-7.441757724
-7.44175788
-7.441758022
-7.441758206
-7.441758498
-7.441759009
-7.44175993
-7.441761619
-7.441764789
-7.441770895
-7.441782918
-7.441806546
-7.441851248
-7.441928677
-7.44203866
-7.442089857
-7.440017368
-7.435508919
-7.434996637
-7.472717514
-7.505351987
-7.472243231
-7.431460646
-7.438906037
-7.749786752
-7.512756799
-7.520237544
-7.521966465
-7.521837764
-7.521785476
-7.52180708
-7.521839865
-7.52186326
-7.521877627
-7.521886004
-7.521890787
-7.521893498
-7.521895034
-7.52189591
-7.521896419
-7.521896726
-7.521896938
-7.521897125
-7.521897358
-7.521897725
-7.521898376
-7.52189956
-7.521901741
-7.521905768
-7.521913242
-7.521927206
-7.521953383
-7.5220021
-7.522090415
-7.522241279
-7.5224612
-7.521842444
-7.520093531
-7.519512769
-7.522134477
-7.521091281
-7.508519329
-7.486665214
-7.495061385
-7.498804465
-7.435610354
-7.418038543
-7.772817714
-7.513063075
-7.520432569
-7.522143205
-7.522024837
-7.521986446
-7.522017897
-7.522055948
-7.522081626
-7.52209681
-7.522105424
-7.522110259
-7.522112974
-7.522114508
-7.522115381
-7.522115888
-7.522116195
-7.522116405
-7.522116589
-7.522116814
-7.522117168
-7.522117798
-7.522118972
-7.522121197
-7.522125427
-7.522133407
-7.522148193
-7.522175009
-7.522223113
-7.522311305
-7.522486238
-7.522886209
-7.52433125
-7.527972795
-7.534396392
-7.541340569
-7.545894597
-7.547423348
-7.543142093
-7.532786089
-7.515797416
-7.483393347
-7.472736882
-7.457470287
-7.429320692
-7.720207088
-7.457593745
-7.452040833
-7.443021508
-7.442348823
-7.442162828
-7.44215686
-7.442183961
-7.442204583
-7.442216827
-7.442223611
-7.442227304
-7.442229322
-7.442230438
-7.442231066
-7.442231429
-7.442231648
-7.442231799
-7.442231934
-7.4422321
-7.442232359
-7.442232823
-7.442233715
-7.442235499
-7.442239127
-7.442246371
-7.442260205
-7.44228509
-7.442327969
-7.442404907
-7.442574644
-7.443098335
-7.44667855
-7.456740662
-7.474047224
-7.495536019
-7.515910417
-7.532543944
-7.542268741
-7.545437784
-7.544678447
-7.53613853
-7.518675557
-7.490786673
-7.48374471
-7.52186854
-7.376576002
-7.367902649
-7.366332651
-7.366013982
-7.365984532
-7.36599301
-7.366002515
-7.36600864
-7.366012037
-7.3660138
-7.366014697
-7.366015159
-7.366015406
-7.366015546
-7.366015631
-7.366015693
-7.366015753
-7.366015829
-7.366015942
-7.36601614
-7.366016536
-7.366017428
-7.36601952
-7.366024249
-7.366034035
-7.366052128
-7.366082334
-7.366132653
-7.36624118
-7.366618277
-7.371518377
-7.386851036
-7.414309266
-7.450490117
-7.487913923
-7.528653184
-7.515396912
-7.500256382
-7.516595826
-7.532920296
-7.542423115
-7.53822254
-7.52696636
-7.531807551
-7.50958177
-7.463260274
-7.468442553
-7.463337713
-7.463080503
-7.472417101
-7.507680054
-7.53317674
-7.548443762
-7.542851457
-7.513647473
-7.494089471
-7.508804828
-7.400066233
-7.425550108
-7.452697485
-7.479564023
-7.522162613
-7.543539187
-7.544585473
-7.527980131
-7.52094948
-7.537579584
-7.401110263
-7.448847831
-7.485762149
-7.503907192
-7.537504509
-7.552519398
-7.542362254
-7.535220068
-7.547070848
-7.461687441
-7.456101776
-7.496691308
-7.54353057
-7.560014591
-7.547575962
-7.53525299
-7.537636313
-7.422629263
-7.493934732
-7.540435433
-7.549876422
-7.560020735
-7.542337226
-7.520906316
-7.508720158
-7.562995463
-7.540446336
-7.543536796
-7.552517147
-7.527907138
-7.494045787
-7.463259181
-7.494014802
-7.496776353
-7.537528617
-7.544579101
-7.513645694
-7.509581425
-7.422770214
-7.456183997
-7.503911597
-7.54353889
-7.542852522
-7.531807882
-7.521868806
-7.461687786
-7.485762932
-7.522163127
-7.548444761
-7.52696669
-7.483745082
-7.42932088
-7.448847915
-7.47956437
-7.533177167
-7.538222467
-7.49078707
-7.457470459
-7.401110255
-7.452698031
-7.507680759
-7.54242349
-7.518676131
-7.472737158
-7.418038427
-7.425550808
-7.47241817
-7.532921002
-7.536139346
-7.483393733
-7.43561027
-7.400066851
-7.463081725
-7.516597206
-7.544680128
-7.51579765
-7.498804784
-7.463338772
-7.500258142
-7.545439519
-7.532786668
-7.495062272
-7.4389071
-7.468442873
-7.515397415
-7.542269236
-7.543142976
-7.486667115
-7.431462973
-7.528651023
-7.53254321
-7.547423806
-7.508523564
-7.472249252
-7.487904549
-7.51590308
-7.54589413
-7.521101583
-7.505367673
-7.450456804
-7.495501741
-7.541332681
-7.522161052
-7.47275839
-7.392244148
-7.414229777
-7.473962583
-7.534371859
-7.519567312
-7.435084312
-7.345641692
-7.386708228
-7.456589181
-7.52792661
-7.520186484
-7.435663682
-7.352461526
-7.371298858
-7.446446096
-7.524235141
-7.521962551
-7.440251029
-7.361935099
-7.366322012
-7.44278533
-7.522737327
-7.522605132
-7.442401451
-7.365961545
-7.365882141
-7.442195713
-7.52231092
-7.522418023
-7.442416583
-7.366093239
-7.36573078
-7.441980669
-7.522117625
-7.522289814
-7.442352194
-7.366084788
-7.365656531
-7.44187808
-7.522017836
-7.522213254
-7.442300464
-7.366057696
-7.3656155
-7.441823392
-7.521963531
-7.522169141
-7.442267467
-7.366035616
-7.365594128
-7.441794868
-7.521934379
-7.522143942
-7.442247347
-7.366021441
-7.365586501
-7.441783419
-7.521920808
-7.522128957
-7.442232899
-7.366011129
-7.365591603
-7.441786953
-7.521919321
-7.522118124
-7.442216199
-7.365997796
-7.365612553
-7.441808272
-7.521930319
-7.522106789
-7.442188635
-7.365973332
-7.365653716
-7.441851516
-7.521955441
-7.522091569
-7.442142881
-7.365930744
-7.365715717
-7.441916804
-7.521993846
-7.522070978
-7.4420769
-7.36586815
-7.365791414
-7.441996038
-7.522037089
-7.522037524
-7.441997062
-7.365792024
-7.36586716
-7.442074907
-7.522069185
-7.52199281
-7.441916616
-7.365715708
-7.365929551
-7.442139932
-7.52208816
-7.521952398
-7.441849522
-7.365652668
-7.365972015
-7.442184433
-7.522100976
-7.521924079
-7.441803284
-7.365609642
-7.365995995
-7.442209759
-7.522108222
-7.521907645
-7.441776769
-7.365585251
-7.366007287
-7.442221773
-7.522111623
-7.521899639
-7.44176404
-7.36557369
-7.366011742
-7.442226526
-7.522112933
-7.521896331
-7.441758893
-7.365569074
-7.366013214
-7.442228077
-7.52211333
-7.521895158
-7.441757127
-7.365567508
-7.366013599
-7.442228462
-7.522113396
-7.521894792
-7.441756618
-7.365567066
-7.366013582
-7.442228422
-7.522113341
-7.521894736
-7.441756574
-7.365567046
-7.366013159
-7.442227947
-7.522113151
-7.521894973
-7.441756984
-7.365567444
-7.366011636
-7.442226274
-7.522112587
-7.521895973
-7.441758615
-7.36556895
-7.366007104
-7.442221336
-7.522111021
-7.521899017
-7.441763559
-7.365573477
-7.365995688
-7.442209025
-7.522107212
-7.521906604
-7.441775966
-7.365584897
-7.365971507
-7.442183216
-7.5220993
-7.521922353
-7.441801958
-7.365609064
-7.365928707
-7.442137909
-7.522085374
-7.521949538
-7.441847331
-7.365651718
-7.365865729
-7.442071514
-7.522064527
-7.521988041
-7.441912971
-7.365714123
-7.365788926
-7.441990265
-7.522029216
-7.522029489
-7.441990921
-7.365789314
-7.365711292
-7.441906831
-7.52198038
-7.522057274
-7.442066384
-7.365863393
-7.365645794
-7.441834094
-7.521932168
-7.522067933
-7.442124633
-7.365922284
-7.365598736
-7.441777889
-7.521889941
-7.522065808
-7.442156887
-7.365958515
-7.365569335
-7.44173547
-7.52185009
-7.522047805
-7.442162254
-7.365973473
-7.365558011
-7.44170478
-7.521807963
-7.522014206
-7.442149852
-7.365978568
-7.365596958
-7.441720716
-7.521779155
-7.521986256
-7.442167018
-7.366018017
-7.365929896
-7.44192287
-7.521822176
-7.522028459
-7.442365986
-7.366347784
-7.367498051
-7.442598407
-7.521937152
-7.522152092
-7.443055787
-7.367930134
-7.37608196
-7.451544556
-7.520185926
-7.520449797
-7.45209163
-7.376609613
-7.456725096
-7.512656102
-7.513107481
-7.457645972
-7.704611691
-7.758461644
-7.784161492
-7.725931101
-6.362572067
-6.366960395
-6.367264695
-6.367371248
-6.367432618
-6.367462059
-6.367475583
-6.367481856
-6.367484883
-6.36748642
-6.367487239
-6.367487692
-6.36748795
-6.367488102
-6.367488197
-6.367488265
-6.367488321
-6.367488367
-6.367488387
-6.367488379
-6.367488454
-6.367489156
-6.367492125
-6.367501046
-6.367522155
-6.367562159
-6.367620301
-6.367673888
-6.36766776
-6.367505168
-6.362256343
-6.357034557
-6.399743166
-6.786183507
-6.576275665
-6.564948083
-6.569161876
-6.570702254
-6.570949545
-6.571007961
-6.571051405
-6.571078762
-6.571095256
-6.571104906
-6.571110438
-6.571113586
-6.571115383
-6.571116419
-6.571117028
-6.571117402
-6.571117657
-6.571117875
-6.571118122
-6.571118478
-6.571119086
-6.571120259
-6.571122772
-6.571128416
-6.571140935
-6.571167051
-6.571216765
-6.571301609
-6.571431483
-6.571617045
-6.571903547
-6.568969203
-6.56648908
-6.59570228
-6.6482111
-6.619811181
-6.557928715
-6.488299612
-6.460368949
-6.55600927
-6.594446987
-6.627010618
-6.637306515
-6.63718553
-6.637152782
-6.637218122
-6.637296082
-6.637350802
-6.637384949
-6.637405229
-6.637416969
-6.637423692
-6.637427536
-6.637429748
-6.637431043
-6.637431837
-6.637432388
-6.637432882
-6.637433491
-6.63743445
-6.637436136
-6.637439253
-6.637445177
-6.637456632
-6.63747889
-6.637521659
-6.637601625
-6.637745356
-6.637992591
-6.63839931
-6.639037746
-6.637975318
-6.637831376
-6.650413556
-6.725413751
-6.741408413
-6.722861232
-6.673573828
-6.652530703
-6.629136765
-6.518117795
-6.445441698
-6.552765922
-6.565724776
-6.561895604
-6.557147433
-6.55564052
-6.555411202
-6.555515311
-6.555631908
-6.555713173
-6.55576336
-6.555792864
-6.555809799
-6.555819413
-6.555824851
-6.555827941
-6.555829726
-6.555830813
-6.555831576
-6.555832288
-6.55583322
-6.555834743
-6.555837473
-6.555842521
-6.55585194
-6.555869559
-6.555902445
-6.555963423
-6.556075164
-6.556276347
-6.556629809
-6.55722732
-6.558151839
-6.559160055
-6.56350828
-6.583436343
-6.700553461
-6.754401798
-6.752642286
-6.72744627
-6.757290991
-6.736412252
-6.685602434
-6.63649706
-6.584667768
-6.496649016
-6.538809114
-6.562094449
-6.570822969
-6.573291695
-6.573565328
-6.573760992
-6.573974258
-6.574132651
-6.574234551
-6.574295895
-6.574331597
-6.57435201
-6.57436358
-6.574370123
-6.574373837
-6.574375981
-6.574377284
-6.574378195
-6.574379046
-6.574380159
-6.574381981
-6.574385246
-6.574391265
-6.574402428
-6.574423103
-6.574461228
-6.574531123
-6.574658372
-6.574888232
-6.575299756
-6.576027127
-6.577278045
-6.579273668
-6.583564318
-6.594317413
-6.615552469
-6.632304758
-6.633487024
-6.63227191
-6.720292148
-6.749367744
-6.7274126
-6.736367502
-6.693589632
-6.655801682
-6.590965831
-6.460610593
-6.539253274
-6.562450625
-6.57104709
-6.573454231
-6.573710406
-6.573904365
-6.574119651
-6.574279851
-6.574382692
-6.574444389
-6.574480178
-6.57450059
-6.574512144
-6.574518673
-6.57452238
-6.574524518
-6.574525816
-6.574526724
-6.574527566
-6.574528664
-6.574530459
-6.574533678
-6.574539633
-6.574550725
-6.57457136
-6.574609547
-6.574679753
-6.574808207
-6.575043627
-6.575481007
-6.576318373
-6.577998407
-6.581559358
-6.588430008
-6.599542815
-6.613399006
-6.624390368
-6.628697193
-6.627993015
-6.630696969
-6.630941503
-6.624807537
-6.69947262
-6.721678262
-6.746983427
-6.714967725
-6.65094076
-6.59255108
-6.554718606
-6.566890782
-6.56248318
-6.557536663
-6.555974345
-6.555736118
-6.555843063
-6.555963097
-6.556046219
-6.556097082
-6.556126726
-6.556143637
-6.556153201
-6.556158603
-6.556161671
-6.556163442
-6.556164517
-6.556165266
-6.556165953
-6.556166841
-6.556168282
-6.556170872
-6.556175702
-6.556184821
-6.556202082
-6.556234626
-6.556295532
-6.556409027
-6.556622531
-6.557039085
-6.55791401
-6.559969266
-6.565542299
-6.577368745
-6.595905689
-6.617725847
-6.635991055
-6.644774783
-6.638683871
-6.627376462
-6.621271052
-6.616695683
-6.618768494
-6.627063679
-6.715327054
-6.79977172
-6.770486371
-6.717125135
-6.621004655
-6.449635808
-6.559509087
-6.595963163
-6.627661594
-6.637714741
-6.637525723
-6.63748151
-6.637549738
-6.637631498
-6.63768829
-6.637723195
-6.637743637
-6.637755355
-6.637762024
-6.637765828
-6.637768012
-6.63776929
-6.637770064
-6.637770586
-6.637771027
-6.637771549
-6.637772353
-6.637773776
-6.637776459
-6.637781691
-6.637792038
-6.637812464
-6.637852225
-6.637928464
-6.638075244
-6.638371696
-6.639036805
-6.640749516
-6.64766341
-6.665288242
-6.694981262
-6.731259597
-6.764724406
-6.777376979
-6.737987737
-6.633661918
-6.617539999
-6.612009423
-6.614881143
-6.620841787
-6.640411433
-6.745978387
-6.772402538
-6.780752253
-6.718985897
-6.619089033
-6.516095301
-6.834232465
-6.577985491
-6.565573512
-6.569497346
-6.570941111
-6.571162246
-6.571217073
-6.571262017
-6.571290896
-6.571308151
-6.571318056
-6.571323627
-6.571326752
-6.571328522
-6.571329539
-6.571330137
-6.571330502
-6.57133075
-6.571330957
-6.571331194
-6.571331542
-6.571332145
-6.571333299
-6.571335676
-6.571340738
-6.571351463
-6.57137345
-6.571416849
-6.571501714
-6.571678116
-6.572105129
-6.573367034
-6.581174081
-6.603762445
-6.643562911
-6.693942859
-6.743321651
-6.775342665
-6.782990843
-6.726231111
-6.689321366
-6.607141099
-6.608174215
-6.614821139
-6.627540627
-6.6415531
-6.650829019
-6.727898647
-6.790514038
-6.750008833
-6.654719198
-6.54711445
-6.676671008
-6.655810765
-6.363257901
-6.367238634
-6.367404425
-6.367468959
-6.367522334
-6.367553136
-6.367568983
-6.367576638
-6.367580219
-6.367581899
-6.36758272
-6.367583147
-6.367583386
-6.367583527
-6.367583617
-6.367583683
-6.367583745
-6.36758382
-6.367583925
-6.367584102
-6.367584469
-6.367585369
-6.367587642
-6.367593023
-6.367604503
-6.367626559
-6.367666736
-6.36774642
-6.367952517
-6.368677931
-6.376887462
-6.403404425
-6.450869626
-6.513626129
-6.583912
-6.674612611
-6.687593116
-6.690059005
-6.71659396
-6.690543684
-6.67863284
-6.614350772
-6.62236183
-6.627110568
-6.633290848
-6.648760223
-6.745280754
-6.815290122
-6.771352496
-6.667537032
-6.547273974
-6.512914455
-6.57094938
-6.612619684
-6.656693824
-6.716719665
-6.712735509
-6.704508574
-6.626269002
-6.628964845
-6.641082119
-6.66103326
-6.759018381
-6.824563582
-6.771422091
-6.65472027
-6.515707716
-6.43237806
-6.548572583
-6.630602968
-6.700340726
-6.751571253
-6.698818383
-6.640939217
-6.649165408
-6.652946018
-6.66692324
-6.759067956
-6.815318955
-6.749806321
-6.61863803
-6.449294932
-6.476260439
-6.624706153
-6.702007803
-6.752220159
-6.764287382
-6.757258754
-6.664887924
-6.652947698
-6.661030741
-6.745271044
-6.790369691
-6.718820084
-6.620977328
-6.635986592
-6.695421154
-6.777020652
-6.833956181
-6.757285422
-6.649173769
-6.641078187
-6.648724643
-6.727869676
-6.780737607
-6.717124103
-6.592569434
-6.594022716
-6.694859553
-6.777072499
-6.764315033
-6.640981882
-6.628978119
-6.633281986
-6.650817425
-6.772397144
-6.770483172
-6.650944837
-6.460616682
-6.594183105
-6.695599465
-6.752339287
-6.698859734
-6.626281963
-6.627112433
-6.641551698
-6.74597666
-6.799771225
-6.714966615
-6.590966204
-6.636213833
-6.702123248
-6.751586118
-6.704517
-6.622368151
-6.627543401
-6.64040953
-6.71532699
-6.746984607
-6.655801478
-6.49664873
-6.624713264
-6.700349963
-6.712742899
-6.614358134
-6.614825258
-6.620842047
-6.6270634
-6.721679169
-6.69358902
-6.584666851
-6.476264853
-6.630609114
-6.716726748
-6.678640281
-6.608181047
-6.614885016
-6.618770262
-6.699474144
-6.736368008
-6.636496783
-6.445441254
-6.548578057
-6.656701559
-6.690551663
-6.607149778
-6.612015808
-6.616699118
-6.624810345
-6.727414105
-6.685602831
-6.518118033
-6.432382833
-6.612625421
-6.71660126
-6.689329673
-6.61754866
-6.621277364
-6.630945046
-6.74936985
-6.736413404
-6.629137812
-6.570953518
-6.690065269
-6.726238416
-6.633670844
-6.627383431
-6.630700201
-6.720294682
-6.757292924
-6.652531849
-6.460370274
-6.512917082
-6.687596528
-6.782995549
-6.737993069
-6.63868941
-6.627996557
-6.632275718
-6.727448902
-6.673575233
-6.488300579
-6.674613867
-6.775345003
-6.777379466
-6.644779349
-6.628701054
-6.633492119
-6.752647677
-6.722864951
-6.557930902
-6.58391167
-6.743320165
-6.764720298
-6.635988071
-6.624393549
-6.632313572
-6.754413831
-6.741417436
-6.619818361
-6.513620163
-6.693929165
-6.731236213
-6.617701358
-6.613395865
-6.615572596
-6.700581404
-6.72544037
-6.648227243
-6.450853336
-6.643526623
-6.694922043
-6.59584492
-6.599525056
-6.594354904
-6.583498269
-6.650468815
-6.595730083
-6.399753751
-6.403374453
-6.603695232
-6.665179595
-6.577259652
-6.588391369
-6.583623633
-6.563619263
-6.637937966
-6.566550808
-6.357061749
-6.376840291
-6.581068566
-6.647495292
-6.565375191
-6.581488899
-6.579351479
-6.559325638
-6.638142443
-6.569074714
-6.362305706
-6.368613884
-6.573224008
-6.640523352
-6.559746446
-6.577897152
-6.577372762
-6.558367197
-6.639259014
-6.572044487
-6.367569459
-6.367875267
-6.571931986
-6.638763937
-6.557646722
-6.576197881
-6.576141435
-6.557487177
-6.638666745
-6.571786906
-6.367744214
-6.367660479
-6.571484949
-6.638066785
-6.556740379
-6.575347434
-6.57542871
-6.556921555
-6.638292278
-6.571621451
-6.367759198
-6.367576027
-6.571297432
-6.6377519
-6.556304966
-6.57490174
-6.575025583
-6.556587042
-6.638063612
-6.571502889
-6.367710633
-6.367533697
-6.571207472
-6.637596328
-6.556081955
-6.57466167
-6.574799424
-6.556395048
-6.637928615
-6.571423238
-6.367654801
-6.367510865
-6.571162244
-6.637516991
-6.55596499
-6.574531255
-6.574673036
-6.556286177
-6.637851433
-6.571375233
-6.367615566
-6.367499529
-6.571140644
-6.637478311
-6.555905413
-6.574461605
-6.574602103
-6.556223169
-6.637806993
-6.571348318
-6.367594122
-6.367495693
-6.571133612
-6.637464784
-6.555880544
-6.57442752
-6.574560853
-6.556182043
-6.637777014
-6.571331409
-6.367583291
-6.367497603
-6.571138301
-6.63747118
-6.555880905
-6.574416474
-6.574533999
-6.556146651
-6.637747862
-6.571315082
-6.367575637
-6.367504899
-6.571154716
-6.637496663
-6.555902801
-6.574422132
-6.574512467
-6.556106597
-6.637710221
-6.5712927
-6.367566147
-6.367517204
-6.571182266
-6.637539472
-6.555942549
-6.574439625
-6.574491033
-6.556057447
-6.637660536
-6.57126169
-6.367552788
-6.367532799
-6.571217121
-6.637593278
-6.555992795
-6.57446208
-6.574465101
-6.556001008
-6.637602294
-6.571224517
-6.367536451
-6.367548582
-6.571252422
-6.637647721
-6.556043212
-6.5744809
-6.574435414
-6.555944465
-6.637544449
-6.571187502
-6.367520048
-6.367561522
-6.571281472
-6.637692942
-6.556085083
-6.574493466
-6.57440868
-6.555896584
-6.637496456
-6.571157148
-6.367506601
-6.367570182
-6.571301026
-6.637724021
-6.556114375
-6.574501718
-6.574389069
-6.555862444
-6.637463241
-6.571136626
-6.367497553
-6.367574953
-6.571311847
-6.637741746
-6.556131616
-6.574506375
-6.574376897
-6.555841789
-6.637443984
-6.571125115
-6.367492505
-6.36757714
-6.571316785
-6.637750129
-6.55614014
-6.574508523
-6.574370363
-6.555831067
-6.637434565
-6.571119706
-6.367490132
-6.367577982
-6.571318636
-6.63775338
-6.556143649
-6.574509262
-6.574367253
-6.555826217
-6.637430636
-6.57111754
-6.367489168
-6.367578252
-6.571319183
-6.637754361
-6.556144794
-6.574509364
-6.574365883
-6.55582425
-6.6374292
-6.571116774
-6.367488817
-6.367578316
-6.571319281
-6.637754522
-6.556144997
-6.574509227
-6.574365284
-6.555823501
-6.637428706
-6.571116513
-6.367488695
-6.367578296
-6.571319213
-6.637754381
-6.55614479
-6.574508976
-6.574365023
-6.555823269
-6.63742854
-6.571116427
-6.367488668
-6.367578186
-6.571318963
-6.637753907
-6.556144127
-6.574508548
-6.574365033
-6.555823496
-6.637428661
-6.571116493
-6.367488725
-6.367577853
-6.571318202
-6.637752496
-6.556142353
-6.574507677
-6.574365603
-6.555824754
-6.637429581
-6.571116991
-6.367488988
-6.367576916
-6.57131603
-6.63774859
-6.556137895
-6.57450578
-6.574367507
-6.555828532
-6.637432728
-6.571118747
-6.367489817
-6.367574577
-6.571310578
-6.637739167
-6.556127864
-6.574501796
-6.57437213
-6.555837558
-6.63744091
-6.571123506
-6.36749198
-6.367569561
-6.571298932
-6.637719754
-6.55610817
-6.574494147
-6.574381205
-6.555855485
-6.637458175
-6.571133975
-6.367496697
-6.367560508
-6.571278028
-6.637685895
-6.556074819
-6.574480947
-6.574395717
-6.555885166
-6.637488163
-6.571152833
-6.367505229
-6.367546933
-6.571246757
-6.637636032
-6.556026117
-6.574460059
-6.574413924
-6.55592567
-6.637530882
-6.571180517
-6.367517878
-6.367530096
-6.571207729
-6.637573722
-6.555964032
-6.574427034
-6.574429152
-6.555969851
-6.637580008
-6.571213207
-6.367533014
-6.367512658
-6.571166513
-6.637506412
-6.555893628
-6.574380072
-6.574430284
-6.556005309
-6.637623651
-6.571243247
-6.367547177
-6.367496844
-6.571127961
-6.637440316
-6.555818918
-6.574320093
-6.574408939
-6.556018634
-6.637648706
-6.571262267
-6.367556379
-6.367482254
-6.571092437
-6.637375011
-6.555736949
-6.574241197
-6.574357041
-6.55599791
-6.637644955
-6.571264282
-6.367557147
-6.367464301
-6.571054797
-6.637302547
-6.555636695
-6.574128739
-6.574260528
-6.555933412
-6.637606474
-6.571246241
-6.367545969
-6.367432712
-6.57100632
-6.637215249
-6.555509494
-6.573964586
-6.574104735
-6.555824885
-6.637535252
-6.571207252
-6.3675177
-6.367369932
-6.570944625
-6.637143496
-6.555397871
-6.57374743
-6.573893399
-6.555727034
-6.637475025
-6.571157011
-6.367466277
-6.367261881
-6.570693604
-6.637169327
-6.555619145
-6.573547027
-6.573703666
-6.555975322
-6.63752771
-6.570940611
-6.367403819
-6.366956684
-6.569150868
-6.637284648
-6.557116347
-6.573265771
-6.573452332
-6.557549662
-6.637726424
-6.569502145
-6.36724008
-6.36256954
-6.564938631
-6.626989323
-6.561854847
-6.570787091
-6.571054255
-6.562510471
-6.627676144
-6.565579031
-6.363259459
-6.57627235
-6.594434441
-6.565674265
-6.562036072
-6.562475142
-6.566929285
-6.595972212
-6.577987339
-6.657649862
-6.779858659
-6.556003892
-6.552722913
-6.538709072
-6.539314124
-6.554750291
-6.559512334
-6.839670096
-6.678290318
-5.433504173
-5.428221434
-5.428030316
-5.427931045
-5.427919311
-5.427925314
-5.427930197
-5.427933536
-5.427935872
-5.427937469
-5.427938501
-5.427939135
-5.427939508
-5.427939726
-5.427939859
-5.427939946
-5.427940009
-5.427940051
-5.427940059
-5.427940052
-5.42794022
-5.427941284
-5.427945101
-5.427955212
-5.42797615
-5.428009355
-5.428044647
-5.428055119
-5.428031561
-5.428163589
-5.422889641
-5.398942104
-5.410750932
-5.456948442
-5.567641535
-5.562557462
-5.558681546
-5.56609094
-5.566940381
-5.567067266
-5.567158
-5.567227533
-5.567269947
-5.567294586
-5.567308819
-5.567317063
-5.567321844
-5.567324618
-5.567326231
-5.567327182
-5.567327772
-5.567328187
-5.567328563
-5.567329023
-5.567329732
-5.567330998
-5.567333528
-5.567338962
-5.567350875
-5.567376246
-5.567427102
-5.567521842
-5.567688316
-5.567981828
-5.568564827
-5.569985913
-5.570991587
-5.580667808
-5.657543158
-5.689329496
-5.711670608
-5.641040158
-5.558543973
-5.470191582
-5.416266357
-5.542787447
-5.544486584
-5.547726173
-5.551443677
-5.552000051
-5.552203775
-5.552398611
-5.552536296
-5.552623095
-5.552675117
-5.552705496
-5.552722982
-5.55273297
-5.552738664
-5.552741921
-5.552743816
-5.552744977
-5.552745798
-5.552746567
-5.552747574
-5.552749227
-5.552752239
-5.552758005
-5.552769303
-5.552791609
-5.552835342
-5.552919553
-5.553078283
-5.553373835
-5.553930668
-5.555028262
-5.557348309
-5.562451731
-5.583139259
-5.705777366
-5.77102657
-5.782245962
-5.750843118
-5.699714406
-5.700487262
-5.655681387
-5.616858365
-5.550850726
-5.530630694
-5.554373807
-5.55984297
-5.561104094
-5.561682186
-5.562115953
-5.56246138
-5.562694102
-5.562838531
-5.562924378
-5.562974142
-5.563002558
-5.563018647
-5.56302773
-5.563032876
-5.563035844
-5.563037654
-5.563038942
-5.563040181
-5.563041855
-5.563044646
-5.56304973
-5.56305927
-5.563077348
-5.563111631
-5.563176355
-5.563297503
-5.563522038
-5.56393524
-5.564695983
-5.566113176
-5.568818711
-5.57414571
-5.58866601
-5.624293932
-5.671208748
-5.700219568
-5.697006722
-5.679040831
-5.743934717
-5.756453535
-5.723350101
-5.728781757
-5.678221567
-5.538346284
-5.423428986
-5.531624285
-5.546915569
-5.55238699
-5.555016936
-5.556428852
-5.55725469
-5.557790898
-5.558126441
-5.558328098
-5.558445846
-5.558513273
-5.558551397
-5.558572792
-5.558584766
-5.558591492
-5.55859534
-5.558597683
-5.558599369
-5.558601032
-5.55860333
-5.558607204
-5.558614243
-5.558627317
-5.558651703
-5.558697068
-5.558781014
-5.558935244
-5.559216294
-5.559724229
-5.560635557
-5.562263145
-5.565179404
-5.570583742
-5.582184595
-5.606290226
-5.644259463
-5.671712966
-5.675125145
-5.670173107
-5.680614815
-5.690286254
-5.684014727
-5.738831809
-5.737555995
-5.729654817
-5.638806993
-5.593417707
-5.526934168
-5.542894341
-5.552499466
-5.55797767
-5.560675453
-5.561963806
-5.562675881
-5.563088818
-5.563328766
-5.56346664
-5.563544907
-5.56358892
-5.563613521
-5.563627244
-5.563634928
-5.563639314
-5.563641979
-5.563643899
-5.5636458
-5.563648436
-5.563652878
-5.563660927
-5.5636758
-5.563703352
-5.563754193
-5.563847446
-5.564017287
-5.56432426
-5.564874771
-5.565854183
-5.567581802
-5.570600656
-5.575842874
-5.585123386
-5.600721261
-5.622155234
-5.639059242
-5.645010027
-5.647749001
-5.661255392
-5.670966869
-5.667857429
-5.672743986
-5.680368112
-5.744884911
-5.740463922
-5.739489574
-5.667594092
-5.513433647
-5.527337299
-5.543244941
-5.552743589
-5.558140018
-5.56079527
-5.56206501
-5.562769481
-5.563179388
-5.563418082
-5.563555388
-5.563633373
-5.563677238
-5.56370176
-5.563715443
-5.563723106
-5.563727481
-5.563730138
-5.563732047
-5.563733935
-5.563736543
-5.563740929
-5.563748869
-5.563763539
-5.563790724
-5.563840933
-5.563933186
-5.564101745
-5.564408297
-5.564964459
-5.565973986
-5.567810609
-5.571147279
-5.577087356
-5.5868625
-5.600860112
-5.617060859
-5.630146783
-5.636478864
-5.63782574
-5.640259912
-5.641952179
-5.642000461
-5.651944806
-5.664633125
-5.680354508
-5.696198361
-5.755480555
-5.785398628
-5.686173103
-5.60651939
-5.533060323
-5.548050722
-5.553099963
-5.555456994
-5.556738251
-5.557507866
-5.558021287
-5.558347829
-5.558545838
-5.55866199
-5.558728653
-5.558766388
-5.558787581
-5.558799449
-5.558806122
-5.55880994
-5.558812261
-5.558813921
-5.558815544
-5.558817765
-5.558821487
-5.558828227
-5.558840729
-5.558864038
-5.558907476
-5.558988211
-5.559137927
-5.559415741
-5.559934667
-5.560918625
-5.562827432
-5.566615211
-5.574098554
-5.587042145
-5.605312396
-5.625640462
-5.642130108
-5.649455644
-5.645193287
-5.636519373
-5.63080587
-5.628295576
-5.632725156
-5.643908614
-5.667533511
-5.69808132
-5.718338157
-5.787995543
-5.765251356
-5.726287703
-5.60956431
-5.412877909
-5.533499034
-5.55637088
-5.560906025
-5.561686807
-5.562054857
-5.562401534
-5.56271266
-5.562932306
-5.563071723
-5.56315553
-5.563204377
-5.56323234
-5.563248196
-5.563257156
-5.563262239
-5.563265166
-5.56326695
-5.563268208
-5.5632694
-5.563270985
-5.563273601
-5.56327833
-5.563287155
-5.563303785
-5.563335247
-5.563394811
-5.563507712
-5.563722959
-5.564139958
-5.564973259
-5.566717925
-5.570581278
-5.579592872
-5.597074904
-5.623154832
-5.652887032
-5.677207223
-5.686695841
-5.6716974
-5.646556853
-5.631576229
-5.62422734
-5.62516024
-5.632508458
-5.649896725
-5.677805549
-5.696557067
-5.704907263
-5.699817174
-5.726015446
-5.714615416
-5.583582848
-5.439091347
-5.547806502
-5.547356656
-5.548967036
-5.552023414
-5.552312566
-5.55241245
-5.552569044
-5.552693504
-5.552775922
-5.55282644
-5.552856207
-5.552873383
-5.552883196
-5.552888786
-5.552891986
-5.552893845
-5.552894977
-5.552895765
-5.552896483
-5.552897404
-5.552898897
-5.552901588
-5.552906646
-5.55291633
-5.552935049
-5.552971408
-5.553042324
-5.553182098
-5.553464884
-5.554066119
-5.555444906
-5.558940354
-5.569010557
-5.591166599
-5.626110612
-5.667367343
-5.701907024
-5.714691737
-5.696438316
-5.666650738
-5.644102491
-5.628169391
-5.624901802
-5.628060376
-5.637592824
-5.650843588
-5.663548847
-5.680080496
-5.69614393
-5.698905346
-5.737657363
-5.72745667
-5.593151569
-5.439458783
-5.576182009
-5.565793485
-5.559887608
-5.566554119
-5.567131071
-5.567162672
-5.567224096
-5.567286828
-5.567328656
-5.567353702
-5.56736816
-5.567376417
-5.567381137
-5.567383848
-5.567385417
-5.567386339
-5.567386901
-5.567387284
-5.567387616
-5.567388017
-5.567388645
-5.567389766
-5.567391885
-5.567396004
-5.567404131
-5.567420273
-5.567452559
-5.567518404
-5.567658659
-5.567979557
-5.568785838
-5.57105609
-5.580913111
-5.607227284
-5.651379029
-5.707534365
-5.762880197
-5.791874117
-5.768834287
-5.677478189
-5.656786457
-5.643441283
-5.638072172
-5.634829793
-5.63735827
-5.640496357
-5.647262796
-5.66104491
-5.684670682
-5.705453961
-5.70822376
-5.744571592
-5.727663178
-5.583816588
-5.412738223
-5.815169267
-5.792801142
-5.434682103
-5.428585258
-5.428143568
-5.427962358
-5.427930101
-5.427934714
-5.427941916
-5.427947
-5.427950091
-5.427951883
-5.42795291
-5.427953501
-5.427953843
-5.427954044
-5.427954168
-5.427954254
-5.427954334
-5.427954434
-5.427954598
-5.427954887
-5.427955413
-5.427956346
-5.42795793
-5.427960568
-5.427965329
-5.427976264
-5.428008139
-5.428108658
-5.428422523
-5.429433966
-5.438267966
-5.466679226
-5.517980482
-5.587558239